      -----------------------------------------------------------      
     |                   =====================                   |     
     |                           x T B                           |     
     |                   =====================                   |     
     |                         S. Grimme                         |     
     |          Mulliken Center for Theoretical Chemistry        |     
     |                    University of Bonn                     |     
      -----------------------------------------------------------      

   * xtb version 6.7.1 (edcfbbe) compiled by 'albert@albert-system' on 2024-07-22

   xtb is free software: you can redistribute it and/or modify it under
   the terms of the GNU Lesser General Public License as published by
   the Free Software Foundation, either version 3 of the License, or
   (at your option) any later version.
   
   xtb is distributed in the hope that it will be useful,
   but WITHOUT ANY WARRANTY; without even the implied warranty of
   MERCHANTABILITY or FITNESS FOR A PARTICULAR PURPOSE.  See the
   GNU Lesser General Public License for more details.
   
   Cite this work as:
   * C. Bannwarth, E. Caldeweyher, S. Ehlert, A. Hansen, P. Pracht,
     J. Seibert, S. Spicher, S. Grimme, WIREs Comput. Mol. Sci., 2020, 11,
     e01493. DOI: 10.1002/wcms.1493
   
   for GFN2-xTB:
   * C. Bannwarth, S. Ehlert and S. Grimme., J. Chem. Theory Comput., 2019,
     15, 1652-1671. DOI: 10.1021/acs.jctc.8b01176
   for GFN1-xTB:
   * S. Grimme, C. Bannwarth, P. Shushkov, J. Chem. Theory Comput., 2017,
     13, 1989-2009. DOI: 10.1021/acs.jctc.7b00118
   for GFN0-xTB:
   * P. Pracht, E. Caldeweyher, S. Ehlert, S. Grimme, ChemRxiv, 2019, preprint.
     DOI: 10.26434/chemrxiv.8326202.v1
   for GFN-FF:
   * S. Spicher and S. Grimme, Angew. Chem. Int. Ed., 2020, 59, 15665-15673.
     DOI: 10.1002/anie.202004239
   
   for ALPB and GBSA implicit solvation:
   * S. Ehlert, M. Stahn, S. Spicher, S. Grimme, J. Chem. Theory Comput.,
     2021, 17, 4250-4261. DOI: 10.1021/acs.jctc.1c00471
   
   for ddCOSMO and CPCM-X implicit solvation:
   * M. Stahn, S. Ehlert, S. Grimme, J. Phys. Chem. A,
     2023, XX, XXXX-XXXX. DOI: 10.1021/acs.jpca.3c04382
   
   for DFT-D4:
   * E. Caldeweyher, C. Bannwarth and S. Grimme, J. Chem. Phys., 2017,
     147, 034112. DOI: 10.1063/1.4993215
   * E. Caldeweyher, S. Ehlert, A. Hansen, H. Neugebauer, S. Spicher,
     C. Bannwarth and S. Grimme, J. Chem. Phys., 2019, 150, 154122.
     DOI: 10.1063/1.5090222
   * E. Caldeweyher, J.-M. Mewes, S. Ehlert and S. Grimme, Phys. Chem. Chem. Phys.
     2020, 22, 8499-8512. DOI: 10.1039/D0CP00502A
   
   for sTDA-xTB:
   * S. Grimme and C. Bannwarth, J. Chem. Phys., 2016, 145, 054103.
     DOI: 10.1063/1.4959605
   
   in the mass-spec context:
   * V. Asgeirsson, C. Bauer and S. Grimme, Chem. Sci., 2017, 8, 4879.
     DOI: 10.1039/c7sc00601b
   * J. Koopman and S. Grimme, ACS Omega 2019, 4, 12, 15120-15133.
     DOI: 10.1021/acsomega.9b02011
   
   for metadynamics refer to:
   * S. Grimme, J. Chem. Theory Comput., 2019, 155, 2847-2862
     DOI: 10.1021/acs.jctc.9b00143
   
   for SPH calculations refer to:
   * S. Spicher and S. Grimme, J. Chem. Theory Comput., 2021, 17, 1701-1714
     DOI: 10.1021/acs.jctc.0c01306
   
   for ONIOM refer to:
   * C. Plett, A. Katbashev, S. Ehlert, S. Grimme, M. Bursch,
     Phys. Chem. Chem. Phys., 2023, 25, 17860-17868. DOI: 10.1039/D3CP02178E
   
   for DIPRO refer to:
   * J. Kohn, N. Gildemeister, S. Grimme, D. Fazzi, A. Hansen,
     J. Chem. Phys., 2023, just accepted.
   
   for PTB refer to:
   * S. Grimme, M. Mueller, A. Hansen, J. Chem. Phys., 2023, 158, 124111.
     DOI: 10.1063/5.0137838
   
   with help from (in alphabetical order)
   P. Atkinson, C. Bannwarth, F. Bohle, G. Brandenburg, E. Caldeweyher
   M. Checinski, S. Dohm, S. Ehlert, S. Ehrlich, I. Gerasimov, C. Hölzer
   A. Katbashev, J. Kohn, J. Koopman, C. Lavigne, S. Lehtola, F. März, M. Müller,
   F. Musil, H. Neugebauer, J. Pisarek, C. Plett, P. Pracht, F. Pultar,
   J. Seibert, P. Shushkov, S. Spicher, M. Stahn, M. Steiner, T. Strunk,
   J. Stückrath, T. Rose, and J. Unsleber
   
 * started run on 2026/01/19 at 22:45:41.143     
   ID    Z sym.   atoms
    1    6 C      1, 3, 4, 6, 7, 9, 11, 12, 14, 16, 17
    2    8 O      2, 5, 8, 10, 13, 15, 18

           -------------------------------------------------
          |                Calculation Setup                |
           -------------------------------------------------

          program call               : xtb gochem.xyz --input gochem.inp -c 0 -u 0 -P 112 --gfn 2 --alpb h2o --md
          hostname                   : uuhpchn.uu.local
          coordinate file            : gochem.xyz
          omp threads                :                   112


           -------------------------------------------------
          |                 G F N 2 - x T B                 |
           -------------------------------------------------

        Reference                      10.1021/acs.jctc.8b01176
      * Hamiltonian:
        H0-scaling (s, p, d)           1.850000    2.230000    2.230000
        zeta-weighting                 0.500000
      * Dispersion:
        s8                             2.700000
        a1                             0.520000
        a2                             5.000000
        s9                             5.000000
      * Repulsion:
        kExp                           1.500000    1.000000
        rExp                           1.000000
      * Coulomb:
        alpha                          2.000000
        third order                    shell-resolved
        anisotropic                    true
        a3                             3.000000
        a5                             4.000000
        cn-shift                       1.200000
        cn-exp                         4.000000
        max-rad                        5.000000

      * Solvation model:               ALPB
        Solvent                        h2o
        Parameter file                 internal GFN2-xTB/ALPB
        Dielectric constant                8.0200E+01
        Reference state                gsolv [1 M gas/solution]
        Free energy shift                  1.0808E-03 Eh       6.7819E-01 kcal/mol
        Temperature                        3.1000E+02 K
        Density                            1.0000E+00 kg/L
        Solvent mass                       1.8000E+01 g/mol
        Interaction kernel             P16
        Born radius scaling (c1)           1.4744E+00
        Born radii integrator          GBOBC
        Born offset                        0.0000E+00 a0       0.0000E+00 AA
        H-bond correction              true
        Ion screening                  false
        Surface tension                    1.0000E-05 Eh       1.5569E+01 dyn/cm
        Grid points                               230 per atom

          ...................................................
          :                      SETUP                      :
          :.................................................:
          :  # basis functions                  72          :
          :  # atomic orbitals                  72          :
          :  # shells                           36          :
          :  # electrons                        86          :
          :  max. iterations                   250          :
          :  Hamiltonian                  GFN2-xTB          :
          :  restarted?                      false          :
          :  GBSA solvation                   true          :
          :  PC potential                    false          :
          :  electronic temp.          300.0000000     K    :
          :  accuracy                    1.0000000          :
          :  -> integral cutoff          0.2500000E+02      :
          :  -> integral neglect         0.1000000E-07      :
          :  -> SCF convergence          0.1000000E-05 Eh   :
          :  -> wf. convergence          0.1000000E-03 e    :
          :  Broyden damping             0.4000000          :
          :  net charge                          0          :
          :  unpaired electrons                  0          :
          ...................................................

 iter      E             dE          RMSdq      gap      omega  full diag
   1    -50.6126057 -0.506126E+02  0.109E+01    0.75       0.0  T
   2    -48.0844238  0.252818E+01  0.115E+01    0.17       1.0  T
   3    -47.7494521  0.334972E+00  0.104E+01    0.40       1.0  T
   4    -49.1565507 -0.140710E+01  0.841E+00    0.12       1.0  T
   5    -49.5410272 -0.384476E+00  0.751E+00    0.10       1.0  T
   6    -50.7366597 -0.119563E+01  0.521E+00    0.31       1.0  T
   7    -50.8702225 -0.133563E+00  0.383E+00    0.25       1.0  T
   8    -50.8907916 -0.205690E-01  0.350E+00    0.19       1.0  T
   9    -50.9355138 -0.447222E-01  0.301E+00    0.10       1.0  T
  10    -51.0096891 -0.741753E-01  0.201E+00    0.04       1.0  T
  11    -51.0098944 -0.205369E-03  0.200E+00    0.04       1.0  T
  12    -50.7656028  0.244292E+00  0.383E+00    0.19       1.0  T
  13    -50.9241874 -0.158585E+00  0.253E+00    0.07       1.0  T
  14    -50.8915783  0.326091E-01  0.278E+00    0.06       1.0  T
  15    -51.0324752 -0.140897E+00  0.938E-01    0.08       1.0  T
  16    -51.0393492 -0.687399E-02  0.751E-01    0.07       1.0  T
  17    -51.0243183  0.150309E-01  0.111E+00    0.09       1.0  T
  18    -51.0480436 -0.237253E-01  0.445E-01    0.04       1.0  T
  19    -50.9900828  0.579608E-01  0.174E+00    0.03       1.0  T
  20    -51.0118646 -0.217818E-01  0.139E+00    0.02       1.0  T
  21    -51.0512200 -0.393554E-01  0.132E-01    0.03       1.0  T
  22    -51.0494591  0.176093E-02  0.295E-01    0.05       1.0  T
  23    -51.0512260 -0.176690E-02  0.119E-01    0.03       1.0  T
  24    -51.0514413 -0.215314E-03  0.391E-02    0.04       1.0  T
  25    -51.0514524 -0.110849E-04  0.283E-02    0.04       1.0  T
  26    -51.0514594 -0.707639E-05  0.209E-02    0.03       1.1  T
  27    -51.0514386  0.208651E-04  0.382E-02    0.04       1.0  T
  28    -51.0514658 -0.272329E-04  0.103E-02    0.03       2.3  T
  29    -51.0514662 -0.349318E-06  0.956E-03    0.03       2.5  T
  30    -51.0514679 -0.172716E-05  0.192E-03    0.03      12.3  T
  31    -51.0514679 -0.525741E-07  0.917E-04    0.03      25.7  T
  32    -51.0514679 -0.116760E-07  0.356E-04    0.03      66.2  T

   *** convergence criteria satisfied after 32 iterations ***

         #    Occupation            Energy/Eh            Energy/eV
      -------------------------------------------------------------
         1        2.0000           -0.8218474             -22.3636
       ...           ...                  ...                  ...
        37        2.0000           -0.5086212             -13.8403
        38        2.0000           -0.4915465             -13.3757
        39        2.0000           -0.4755316             -12.9399
        40        2.0000           -0.4703304             -12.7983
        41        2.0000           -0.4678002             -12.7295
        42        2.0000           -0.4603089             -12.5256
        43        1.3228           -0.4433046             -12.0629 (HOMO)
        44        0.6772           -0.4420324             -12.0283 (LUMO)
        45        0.0000           -0.4313063             -11.7364
        46        0.0000           -0.4292021             -11.6792
        47                         -0.4216328             -11.4732
        48                         -0.4145426             -11.2803
       ...                                ...                  ...
        72                          0.5106588              13.8957
      -------------------------------------------------------------
                  HL-Gap            0.0012722 Eh            0.0346 eV
             Fermi-level           -0.4426686 Eh          -12.0456 eV

 SCC (total)                   0 d,  0 h,  0 min,  0.127 sec
 SCC setup                      ...        0 min,  0.001 sec (  0.443%)
 Dispersion                     ...        0 min,  0.001 sec (  0.944%)
 classical contributions        ...        0 min,  0.001 sec (  0.745%)
 integral evaluation            ...        0 min,  0.001 sec (  1.026%)
 iterations                     ...        0 min,  0.120 sec ( 93.845%)
 molecular gradient             ...        0 min,  0.003 sec (  2.662%)
 printout                       ...        0 min,  0.000 sec (  0.216%)

         :::::::::::::::::::::::::::::::::::::::::::::::::::::
         ::                     SUMMARY                     ::
         :::::::::::::::::::::::::::::::::::::::::::::::::::::
         :: total energy             -50.839893213078 Eh    ::
         :: total w/o Gsasa/hb       -50.844019515867 Eh    ::
         :: gradient norm              0.513829519040 Eh/a0 ::
         :: HOMO-LUMO gap              0.034618981059 eV    ::
         ::.................................................::
         :: SCC energy               -51.051512609875 Eh    ::
         :: -> isotropic ES            0.089864174153 Eh    ::
         :: -> anisotropic ES          0.001525369243 Eh    ::
         :: -> anisotropic XC          0.009279983791 Eh    ::
         :: -> dispersion             -0.016633069702 Eh    ::
         :: -> Gsolv                  -0.018405200769 Eh    ::
         ::    -> Gelec               -0.022531503558 Eh    ::
         ::    -> Gsasa                0.004758417398 Eh    ::
         ::    -> Ghb                 -0.001712874307 Eh    ::
         ::    -> Gshift               0.001080759698 Eh    ::
         :: repulsion energy           0.211619396797 Eh    ::
         :: add. restraining           0.000000000000 Eh    ::
         :: total charge              -0.000000000000 e     ::
         :::::::::::::::::::::::::::::::::::::::::::::::::::::

           -------------------------------------------------
          |                Property Printout                |
           -------------------------------------------------

    * Orbital Energies and Occupations

         #    Occupation            Energy/Eh            Energy/eV
      -------------------------------------------------------------
         1        2.0000           -0.8218474             -22.3636
       ...           ...                  ...                  ...
        31        2.0000           -0.5527038             -15.0398
        32        2.0000           -0.5396569             -14.6848
        33        2.0000           -0.5283690             -14.3777
        34        2.0000           -0.5232960             -14.2396
        35        2.0000           -0.5152123             -14.0196
        36        2.0000           -0.5108512             -13.9010
        37        2.0000           -0.5086212             -13.8403
        38        2.0000           -0.4915465             -13.3757
        39        2.0000           -0.4755316             -12.9399
        40        2.0000           -0.4703304             -12.7983
        41        2.0000           -0.4678002             -12.7295
        42        2.0000           -0.4603089             -12.5256
        43        1.3228           -0.4433046             -12.0629 (HOMO)
        44        0.6772           -0.4420324             -12.0283 (LUMO)
        45        0.0000           -0.4313063             -11.7364
        46        0.0000           -0.4292021             -11.6792
        47                         -0.4216328             -11.4732
        48                         -0.4145426             -11.2803
        49                         -0.4061925             -11.0531
        50                         -0.3853714             -10.4865
        51                         -0.3788034             -10.3078
        52                         -0.3638394              -9.9006
        53                         -0.3449583              -9.3868
        54                         -0.3013007              -8.1988
       ...                                ...                  ...
        72                          0.5106588              13.8957
      -------------------------------------------------------------
                  HL-Gap            0.0012722 Eh            0.0346 eV
             Fermi-level           -0.4426686 Eh          -12.0456 eV

     #   Z          covCN         q      C6AA      α(0)
     1   6 C        0.867     0.022    34.495     9.806
     2   8 O        1.696     0.059    13.751     5.007
     3   6 C        1.841     0.105    28.538     8.630
     4   6 C        1.844     0.112    28.382     8.606
     5   8 O        1.697    -0.043    15.054     5.238
     6   6 C        1.844     0.090    28.896     8.684
     7   6 C        1.843     0.094    28.812     8.671
     8   8 O        1.700    -0.159    16.704     5.518
     9   6 C        2.710     0.389    20.420     7.397
    10   8 O        0.856    -0.356    20.831     6.119
    11   6 C        2.824     0.142    24.909     8.178
    12   6 C        0.979    -0.058    37.712    10.314
    13   8 O        1.702    -0.185    17.094     5.582
    14   6 C        2.713     0.391    20.392     7.392
    15   8 O        0.856    -0.350    20.701     6.100
    16   6 C        2.800     0.198    23.790     7.990
    17   6 C        0.980    -0.061    37.810    10.328
    18   8 O        0.850    -0.388    21.454     6.210

 Mol. C6AA /au·bohr⁶  :       7690.049264
 Mol. C8AA /au·bohr⁸  :     198592.513112
 Mol. α(0) /au        :        135.769787


Wiberg/Mayer (AO) data.
largest (>0.10) Wiberg bond orders for each atom

 ---------------------------------------------------------------------------
     #   Z sym  total        # sym  WBO       # sym  WBO       # sym  WBO
 ---------------------------------------------------------------------------
     1   6 C    2.103 --     2 O    1.593     3 C    0.269     4 C    0.175
     2   8 O    2.768 --     1 C    1.593     3 C    1.080
     3   6 C    3.189 --     4 C    1.641     2 O    1.080     1 C    0.269
     4   6 C    3.267 --     3 C    1.641     5 O    1.267     1 C    0.175
     5   8 O    2.587 --     4 C    1.267     6 C    1.120
     6   6 C    3.548 --     7 C    2.162     5 O    1.120
     7   6 C    3.525 --     6 C    2.162     8 O    1.066
     8   8 O    2.439 --     9 C    1.084     7 C    1.066    10 O    0.145
     9   6 C    3.921 --    10 O    1.769     8 O    1.084    11 C    0.945
    10   8 O    2.092 --     9 C    1.769     8 O    0.145
    11   6 C    3.829 --    12 C    1.806     9 C    0.945    13 O    0.942
    12   6 C    2.212 --    11 C    1.806
    13   8 O    2.392 --    14 C    1.126    11 C    0.942    15 O    0.169
    14   6 C    3.909 --    15 O    1.753    13 O    1.126    16 C    0.880
    15   8 O    2.123 --    14 C    1.753    13 O    0.169    17 C    0.107
    16   6 C    3.812 --    17 C    1.482    18 O    1.351    14 C    0.880
    17   6 C    2.055 --    16 C    1.482    18 O    0.333    15 O    0.107
    18   8 O    1.728 --    16 C    1.351    17 C    0.333
 ---------------------------------------------------------------------------

Topologies differ in total number of bonds
Writing topology from bond orders to xtbtopo.mol

molecular dipole:
                 x           y           z       tot (Debye)
 q only:        6.031      -0.841      -0.018
   full:        6.081      -0.756       0.150      15.581
molecular quadrupole (traceless):
                xx          xy          yy          xz          yz          zz
 q only:       -9.835     -15.563       3.140      19.287       4.795       6.695
  q+dip:      -10.435     -10.528       3.054      11.816       8.784       7.381
   full:      -10.355      -9.257       4.063      11.424       8.773       6.292


           -------------------------------------------------
          | TOTAL ENERGY              -50.839893213078 Eh   |
          | GRADIENT NORM               0.513829519040 Eh/α |
          | HOMO-LUMO GAP               0.034618981059 eV   |
           -------------------------------------------------
           ------------------------------------------------- 
          |               Molecular Dynamics                |
           ------------------------------------------------- 
 trajectories on xtb.trj or xtb.trj.<n>
 
 MD time /ps        :10000.00
 dt /fs             :    4.00
 SCC accuracy       :    2.00
 temperature /K     :  310.00
 max steps          :******
 block length (av.) :  1250
 dumpstep(trj) /fs  :   50.00    12
 dumpstep(coords)/fs: 1000.00   250
 H atoms mass (amu) :     4
 # deg. of freedom  :    37
 SHAKE on. # bonds  :          17  all: F
 Berendsen THERMOSTAT on
         time (ps)    <Epot>      Ekin   <T>   T     Etot
      0    0.00      0.00000   0.0182    0.    0.   -50.82173
est. speed in wall clock h for 100 ps :  0.28
    200    0.80    -50.79132   0.1407 2321. 2402.   -51.01932
    400    1.60    -50.98953   0.1017 2146. 1737.   -51.12290
    600    2.40    -51.07044   0.0528 1833.  902.   -51.19529
    800    3.20    -51.11696   0.0438 1592.  747.   -51.21675
   1000    4.00    -51.16073   0.0816 1546. 1392.   -51.29568
   1200    4.80    -51.19777   0.0595 1464. 1016.   -51.34651
block <Epot> / <T> :     -51.24663 1439.     drift:  0.99D+02   Tbath : 310.
   1400    5.60    -51.22665   0.0341 1365.  582.   -51.36767
   1600    6.40    -51.24946   0.0282 1273.  481.   -51.38051
   1800    7.20    -51.26776   0.0324 1192.  552.   -51.38264
   2000    8.00    -51.28270   0.0294 1123.  503.   -51.39058
   2200    8.80    -51.29511   0.0259 1063.  442.   -51.39489
   2400    9.60    -51.30556   0.0257 1012.  438.   -51.39428
block <Epot> / <T> :     -51.41480  538.     drift:  0.99D+02   Tbath : 310.
   2600   10.40    -51.31447   0.0255  967.  435.   -51.39680
   2800   11.20    -51.32216   0.0232  928.  396.   -51.39915
   3000   12.00    -51.32886   0.0230  893.  393.   -51.39940
   3200   12.80    -51.33475   0.0224  863.  382.   -51.40116
   3400   13.60    -51.33997   0.0233  836.  398.   -51.40064
   3600   14.40    -51.34462   0.0233  811.  397.   -51.40035
block <Epot> / <T> :     -51.42303  406.     drift:  0.99D+02   Tbath : 310.
   3800   15.20    -51.34879   0.0231  789.  395.   -51.40072
   4000   16.00    -51.35256   0.0229  769.  390.   -51.40127
   4200   16.80    -51.35597   0.0228  751.  389.   -51.40152
   4400   17.60    -51.35908   0.0226  734.  386.   -51.40188
   4600   18.40    -51.36192   0.0220  719.  375.   -51.40237
   4800   19.20    -51.36453   0.0226  705.  385.   -51.40191
   5000   20.00    -51.36693   0.0226  692.  385.   -51.40225
block <Epot> / <T> :     -51.42437  385.     drift: -0.54D-01   Tbath : 310.
   5200   20.80    -51.36915   0.0224  680.  383.   -51.40237
   5400   21.60    -51.37121   0.0222  669.  380.   -51.40239
   5600   22.40    -51.37312   0.0222  658.  379.   -51.40258
   5800   23.20    -51.37490   0.0218  649.  373.   -51.40301
   6000   24.00    -51.37657   0.0219  640.  374.   -51.40299
   6200   24.80    -51.37812   0.0218  631.  372.   -51.40308
block <Epot> / <T> :     -51.42478  378.     drift: -0.31D-02   Tbath : 310.
   6400   25.60    -51.37959   0.0218  623.  372.   -51.40304
   6600   26.40    -51.38096   0.0220  616.  375.   -51.40291
   6800   27.20    -51.38225   0.0222  609.  379.   -51.40274
   7000   28.00    -51.38347   0.0221  602.  377.   -51.40288
   7200   28.80    -51.38462   0.0222  596.  379.   -51.40273
   7400   29.60    -51.38571   0.0221  590.  377.   -51.40288
block <Epot> / <T> :     -51.42494  375.     drift: -0.61D-03   Tbath : 310.
   7600   30.40    -51.38675   0.0219  584.  374.   -51.40307
   7800   31.20    -51.38773   0.0219  579.  374.   -51.40310
   8000   32.00    -51.38866   0.0219  574.  373.   -51.40314
   8200   32.80    -51.38954   0.0218  569.  373.   -51.40319
   8400   33.60    -51.39039   0.0219  564.  374.   -51.40309
   8600   34.40    -51.39119   0.0219  560.  374.   -51.40311
block <Epot> / <T> :     -51.42500  374.     drift: -0.21D-03   Tbath : 310.
   8800   35.20    -51.39196   0.0219  555.  374.   -51.40312
   9000   36.00    -51.39270   0.0219  551.  375.   -51.40308
   9200   36.80    -51.39340   0.0219  548.  374.   -51.40311
   9400   37.60    -51.39407   0.0219  544.  374.   -51.40310
   9600   38.40    -51.39472   0.0219  540.  374.   -51.40311
   9800   39.20    -51.39534   0.0219  537.  374.   -51.40309
  10000   40.00    -51.39593   0.0219  534.  374.   -51.40309
block <Epot> / <T> :     -51.42502  374.     drift: -0.80D-04   Tbath : 310.
  10200   40.80    -51.39650   0.0219  531.  374.   -51.40311
  10400   41.60    -51.39705   0.0219  528.  374.   -51.40312
  10600   42.40    -51.39758   0.0219  525.  374.   -51.40314
  10800   43.20    -51.39809   0.0219  522.  373.   -51.40318
  11000   44.00    -51.39858   0.0219  519.  374.   -51.40314
  11200   44.80    -51.39905   0.0219  517.  373.   -51.40317
block <Epot> / <T> :     -51.42503  374.     drift: -0.31D-04   Tbath : 310.
  11400   45.60    -51.39950   0.0219  514.  374.   -51.40313
  11600   46.40    -51.39994   0.0219  512.  374.   -51.40312
  11800   47.20    -51.40037   0.0219  509.  374.   -51.40312
  12000   48.00    -51.40078   0.0219  507.  374.   -51.40313
  12200   48.80    -51.40118   0.0219  505.  374.   -51.40313
  12400   49.60    -51.40156   0.0219  503.  374.   -51.40315
block <Epot> / <T> :     -51.42504  374.     drift: -0.12D-04   Tbath : 310.
  12600   50.40    -51.40194   0.0219  501.  374.   -51.40313
  12800   51.20    -51.40230   0.0219  499.  374.   -51.40314
  13000   52.00    -51.40265   0.0219  497.  374.   -51.40313
  13200   52.80    -51.40299   0.0219  495.  374.   -51.40313
  13400   53.60    -51.40331   0.0219  493.  374.   -51.40313
  13600   54.40    -51.40363   0.0219  491.  374.   -51.40313
block <Epot> / <T> :     -51.42504  374.     drift: -0.41D-05   Tbath : 310.
  13800   55.20    -51.40394   0.0219  490.  374.   -51.40313
  14000   56.00    -51.40425   0.0219  488.  374.   -51.40314
  14200   56.80    -51.40454   0.0219  486.  374.   -51.40314
  14400   57.60    -51.40482   0.0219  485.  374.   -51.40314
  14600   58.40    -51.40510   0.0219  483.  374.   -51.40314
  14800   59.20    -51.40537   0.0219  482.  374.   -51.40314
  15000   60.00    -51.40563   0.0219  480.  374.   -51.40313
block <Epot> / <T> :     -51.42504  374.     drift: -0.14D-05   Tbath : 310.
  15200   60.80    -51.40589   0.0219  479.  374.   -51.40313
  15400   61.60    -51.40614   0.0219  478.  374.   -51.40314
  15600   62.40    -51.40638   0.0219  476.  374.   -51.40314
  15800   63.20    -51.40661   0.0219  475.  374.   -51.40314
  16000   64.00    -51.40684   0.0219  474.  374.   -51.40314
  16200   64.80    -51.40707   0.0219  473.  374.   -51.40314
block <Epot> / <T> :     -51.42504  374.     drift: -0.52D-06   Tbath : 310.
  16400   65.60    -51.40729   0.0219  471.  374.   -51.40314
  16600   66.40    -51.40750   0.0219  470.  374.   -51.40314
  16800   67.20    -51.40771   0.0219  469.  374.   -51.40314
  17000   68.00    -51.40791   0.0219  468.  374.   -51.40314
  17200   68.80    -51.40811   0.0219  467.  374.   -51.40314
  17400   69.60    -51.40831   0.0219  466.  374.   -51.40314
block <Epot> / <T> :     -51.42504  374.     drift: -0.24D-06   Tbath : 310.
  17600   70.40    -51.40850   0.0219  465.  374.   -51.40314
  17800   71.20    -51.40868   0.0219  464.  374.   -51.40314
  18000   72.00    -51.40887   0.0219  463.  374.   -51.40314
  18200   72.80    -51.40904   0.0219  462.  374.   -51.40314
  18400   73.60    -51.40922   0.0219  461.  374.   -51.40314
  18600   74.40    -51.40939   0.0219  460.  374.   -51.40314
block <Epot> / <T> :     -51.42504  374.     drift: -0.16D-06   Tbath : 310.
  18800   75.20    -51.40955   0.0219  459.  374.   -51.40314
  19000   76.00    -51.40972   0.0219  458.  374.   -51.40314
  19200   76.80    -51.40988   0.0219  457.  374.   -51.40314
  19400   77.60    -51.41003   0.0219  456.  374.   -51.40314
  19600   78.40    -51.41019   0.0219  455.  374.   -51.40314
  19800   79.20    -51.41034   0.0219  455.  374.   -51.40314
  20000   80.00    -51.41048   0.0219  454.  374.   -51.40314
block <Epot> / <T> :     -51.42504  374.     drift: -0.12D-06   Tbath : 310.
  20200   80.80    -51.41063   0.0219  453.  374.   -51.40314
  20400   81.60    -51.41077   0.0219  452.  374.   -51.40314
  20600   82.40    -51.41091   0.0219  451.  374.   -51.40314
  20800   83.20    -51.41104   0.0219  451.  374.   -51.40314
  21000   84.00    -51.41118   0.0219  450.  374.   -51.40314
  21200   84.80    -51.41131   0.0219  449.  374.   -51.40314
block <Epot> / <T> :     -51.42504  374.     drift: -0.12D-06   Tbath : 310.
  21400   85.60    -51.41143   0.0219  449.  374.   -51.40314
  21600   86.40    -51.41156   0.0219  448.  374.   -51.40314
  21800   87.20    -51.41168   0.0219  447.  374.   -51.40314
  22000   88.00    -51.41181   0.0219  446.  374.   -51.40314
  22200   88.80    -51.41193   0.0219  446.  374.   -51.40314
  22400   89.60    -51.41204   0.0219  445.  374.   -51.40314
block <Epot> / <T> :     -51.42504  374.     drift: -0.13D-06   Tbath : 310.
  22600   90.40    -51.41216   0.0219  445.  374.   -51.40314
  22800   91.20    -51.41227   0.0219  444.  374.   -51.40314
  23000   92.00    -51.41238   0.0219  443.  374.   -51.40314
  23200   92.80    -51.41249   0.0219  443.  374.   -51.40314
  23400   93.60    -51.41260   0.0219  442.  374.   -51.40314
  23600   94.40    -51.41270   0.0219  442.  374.   -51.40314
block <Epot> / <T> :     -51.42504  374.     drift: -0.14D-06   Tbath : 310.
  23800   95.20    -51.41281   0.0219  441.  374.   -51.40314
  24000   96.00    -51.41291   0.0219  440.  374.   -51.40314
  24200   96.80    -51.41301   0.0219  440.  374.   -51.40314
  24400   97.60    -51.41311   0.0219  439.  374.   -51.40314
  24600   98.40    -51.41320   0.0219  439.  374.   -51.40314
  24800   99.20    -51.41330   0.0219  438.  374.   -51.40314
  25000  100.00    -51.41339   0.0219  438.  374.   -51.40314
block <Epot> / <T> :     -51.42504  374.     drift: -0.15D-06   Tbath : 310.
  25200  100.80    -51.41349   0.0219  437.  374.   -51.40314
  25400  101.60    -51.41358   0.0219  437.  374.   -51.40314
  25600  102.40    -51.41367   0.0219  436.  374.   -51.40314
  25800  103.20    -51.41375   0.0219  436.  374.   -51.40314
  26000  104.00    -51.41384   0.0219  435.  374.   -51.40314
  26200  104.80    -51.41393   0.0219  435.  374.   -51.40314
block <Epot> / <T> :     -51.42504  374.     drift: -0.17D-06   Tbath : 310.
  26400  105.60    -51.41401   0.0219  434.  374.   -51.40314
  26600  106.40    -51.41409   0.0219  434.  374.   -51.40314
  26800  107.20    -51.41418   0.0219  433.  374.   -51.40314
  27000  108.00    -51.41426   0.0219  433.  374.   -51.40311
  27200  108.80    -51.41434   0.0219  433.  374.   -51.40311
  27400  109.60    -51.41441   0.0219  432.  374.   -51.40314
block <Epot> / <T> :     -51.42504  374.     drift:  0.18D-06   Tbath : 310.
  27600  110.40    -51.41449   0.0219  432.  374.   -51.40313
  27800  111.20    -51.41457   0.0219  431.  373.   -51.40317
  28000  112.00    -51.41464   0.0219  431.  374.   -51.40313
  28200  112.80    -51.41472   0.0219  431.  374.   -51.40314
  28400  113.60    -51.41479   0.0219  430.  374.   -51.40313
  28600  114.40    -51.41486   0.0219  430.  374.   -51.40313
block <Epot> / <T> :     -51.42504  374.     drift:  0.32D-06   Tbath : 310.
  28800  115.20    -51.41493   0.0219  429.  374.   -51.40313
  29000  116.00    -51.41500   0.0219  429.  374.   -51.40315
  29200  116.80    -51.41507   0.0219  429.  374.   -51.40314
  29400  117.60    -51.41514   0.0219  428.  374.   -51.40314
  29600  118.40    -51.41520   0.0219  428.  374.   -51.40314
  29800  119.20    -51.41527   0.0219  427.  374.   -51.40313
  30000  120.00    -51.41533   0.0219  427.  374.   -51.40314
block <Epot> / <T> :     -51.42504  374.     drift: -0.77D-07   Tbath : 310.
  30200  120.80    -51.41540   0.0219  427.  374.   -51.40314
  30400  121.60    -51.41546   0.0219  426.  374.   -51.40314
  30600  122.40    -51.41552   0.0219  426.  374.   -51.40314
  30800  123.20    -51.41559   0.0219  426.  374.   -51.40315
  31000  124.00    -51.41565   0.0219  425.  374.   -51.40314
  31200  124.80    -51.41571   0.0219  425.  374.   -51.40315
block <Epot> / <T> :     -51.42504  374.     drift: -0.67D-06   Tbath : 310.
  31400  125.60    -51.41577   0.0219  425.  374.   -51.40314
  31600  126.40    -51.41583   0.0219  424.  374.   -51.40314
  31800  127.20    -51.41588   0.0219  424.  374.   -51.40314
  32000  128.00    -51.41594   0.0219  424.  374.   -51.40314
  32200  128.80    -51.41600   0.0219  423.  374.   -51.40314
  32400  129.60    -51.41605   0.0219  423.  374.   -51.40314
block <Epot> / <T> :     -51.42504  374.     drift: -0.71D-06   Tbath : 310.
  32600  130.40    -51.41611   0.0219  423.  374.   -51.40312
  32800  131.20    -51.41616   0.0219  423.  374.   -51.40314
  33000  132.00    -51.41622   0.0219  422.  374.   -51.40314
  33200  132.80    -51.41627   0.0219  422.  374.   -51.40314
  33400  133.60    -51.41632   0.0219  422.  374.   -51.40314
  33600  134.40    -51.41637   0.0219  421.  374.   -51.40314
block <Epot> / <T> :     -51.42504  374.     drift: -0.33D-06   Tbath : 310.
  33800  135.20    -51.41643   0.0219  421.  374.   -51.40315
  34000  136.00    -51.41648   0.0219  421.  374.   -51.40315
  34200  136.80    -51.41653   0.0219  421.  374.   -51.40315
  34400  137.60    -51.41658   0.0219  420.  374.   -51.40314
  34600  138.40    -51.41662   0.0219  420.  374.   -51.40315
  34800  139.20    -51.41667   0.0219  420.  374.   -51.40314
  35000  140.00    -51.41672   0.0219  419.  374.   -51.40314
block <Epot> / <T> :     -51.42504  374.     drift: -0.33D-06   Tbath : 310.
  35200  140.80    -51.41677   0.0219  419.  374.   -51.40314
  35400  141.60    -51.41681   0.0219  419.  374.   -51.40314
  35600  142.40    -51.41686   0.0219  419.  374.   -51.40314
  35800  143.20    -51.41691   0.0219  418.  374.   -51.40314
  36000  144.00    -51.41695   0.0219  418.  374.   -51.40314
  36200  144.80    -51.41700   0.0219  418.  374.   -51.40314
block <Epot> / <T> :     -51.42504  374.     drift: -0.47D-06   Tbath : 310.
  36400  145.60    -51.41704   0.0219  418.  374.   -51.40314
  36600  146.40    -51.41708   0.0219  417.  374.   -51.40314
  36800  147.20    -51.41713   0.0219  417.  374.   -51.40314
  37000  148.00    -51.41717   0.0219  417.  374.   -51.40314
  37200  148.80    -51.41721   0.0219  417.  374.   -51.40314
  37400  149.60    -51.41725   0.0219  417.  374.   -51.40314
block <Epot> / <T> :     -51.42504  374.     drift: -0.65D-06   Tbath : 310.
  37600  150.40    -51.41730   0.0219  416.  374.   -51.40314
  37800  151.20    -51.41734   0.0219  416.  374.   -51.40314
  38000  152.00    -51.41738   0.0219  416.  374.   -51.40314
  38200  152.80    -51.41742   0.0219  416.  374.   -51.40314
  38400  153.60    -51.41746   0.0219  415.  374.   -51.40314
  38600  154.40    -51.41750   0.0219  415.  374.   -51.40314
block <Epot> / <T> :     -51.42504  374.     drift: -0.61D-06   Tbath : 310.
  38800  155.20    -51.41754   0.0219  415.  374.   -51.40315
  39000  156.00    -51.41757   0.0219  415.  374.   -51.40315
  39200  156.80    -51.41761   0.0219  415.  374.   -51.40315
  39400  157.60    -51.41765   0.0219  414.  374.   -51.40315
  39600  158.40    -51.41769   0.0219  414.  374.   -51.40315
  39800  159.20    -51.41772   0.0219  414.  374.   -51.40315
  40000  160.00    -51.41776   0.0219  414.  374.   -51.40315
block <Epot> / <T> :     -51.42504  374.     drift: -0.63D-06   Tbath : 310.
  40200  160.80    -51.41780   0.0219  414.  374.   -51.40314
  40400  161.60    -51.41783   0.0219  413.  374.   -51.40314
  40600  162.40    -51.41787   0.0219  413.  374.   -51.40314
  40800  163.20    -51.41790   0.0219  413.  374.   -51.40314
  41000  164.00    -51.41794   0.0219  413.  374.   -51.40314
  41200  164.80    -51.41797   0.0219  413.  374.   -51.40314
block <Epot> / <T> :     -51.42504  374.     drift: -0.69D-06   Tbath : 310.
  41400  165.60    -51.41801   0.0219  412.  374.   -51.40315
  41600  166.40    -51.41804   0.0219  412.  374.   -51.40315
  41800  167.20    -51.41807   0.0219  412.  374.   -51.40315
  42000  168.00    -51.41811   0.0219  412.  374.   -51.40315
  42200  168.80    -51.41814   0.0219  412.  374.   -51.40315
  42400  169.60    -51.41817   0.0219  412.  374.   -51.40315
block <Epot> / <T> :     -51.42505  374.     drift: -0.75D-06   Tbath : 310.
  42600  170.40    -51.41821   0.0219  411.  374.   -51.40315
  42800  171.20    -51.41824   0.0219  411.  374.   -51.40314
  43000  172.00    -51.41827   0.0219  411.  374.   -51.40314
  43200  172.80    -51.41830   0.0219  411.  374.   -51.40314
  43400  173.60    -51.41833   0.0219  411.  374.   -51.40314
  43600  174.40    -51.41836   0.0219  410.  374.   -51.40314
block <Epot> / <T> :     -51.42505  374.     drift: -0.81D-06   Tbath : 310.
  43800  175.20    -51.41839   0.0219  410.  374.   -51.40314
  44000  176.00    -51.41842   0.0219  410.  374.   -51.40315
  44200  176.80    -51.41845   0.0219  410.  374.   -51.40315
  44400  177.60    -51.41848   0.0219  410.  374.   -51.40316
  44600  178.40    -51.41851   0.0219  410.  374.   -51.40316
  44800  179.20    -51.41854   0.0219  409.  374.   -51.40316
  45000  180.00    -51.41857   0.0219  409.  374.   -51.40315
block <Epot> / <T> :     -51.42505  374.     drift: -0.87D-06   Tbath : 310.
  45200  180.80    -51.41860   0.0219  409.  374.   -51.40315
  45400  181.60    -51.41863   0.0219  409.  374.   -51.40315
  45600  182.40    -51.41866   0.0219  409.  374.   -51.40314
  45800  183.20    -51.41868   0.0219  409.  374.   -51.40314
  46000  184.00    -51.41871   0.0219  409.  374.   -51.40314
  46200  184.80    -51.41874   0.0219  408.  374.   -51.40314
block <Epot> / <T> :     -51.42505  374.     drift: -0.94D-06   Tbath : 310.
  46400  185.60    -51.41877   0.0219  408.  374.   -51.40315
  46600  186.40    -51.41879   0.0219  408.  374.   -51.40315
  46800  187.20    -51.41882   0.0219  408.  374.   -51.40316
  47000  188.00    -51.41885   0.0219  408.  374.   -51.40316
  47200  188.80    -51.41887   0.0219  408.  374.   -51.40316
  47400  189.60    -51.41890   0.0219  408.  374.   -51.40316
block <Epot> / <T> :     -51.42505  374.     drift: -0.10D-05   Tbath : 310.
  47600  190.40    -51.41892   0.0219  407.  374.   -51.40316
  47800  191.20    -51.41895   0.0219  407.  374.   -51.40315
  48000  192.00    -51.41898   0.0219  407.  374.   -51.40315
  48200  192.80    -51.41900   0.0219  407.  374.   -51.40315
  48400  193.60    -51.41903   0.0219  407.  374.   -51.40314
  48600  194.40    -51.41905   0.0219  407.  374.   -51.40315
block <Epot> / <T> :     -51.42505  374.     drift: -0.12D-05   Tbath : 310.
  48800  195.20    -51.41907   0.0219  407.  374.   -51.40315
  49000  196.00    -51.41910   0.0219  406.  374.   -51.40315
  49200  196.80    -51.41912   0.0219  406.  374.   -51.40316
  49400  197.60    -51.41915   0.0219  406.  374.   -51.40316
  49600  198.40    -51.41917   0.0219  406.  374.   -51.40316
  49800  199.20    -51.41919   0.0219  406.  374.   -51.40316
  50000  200.00    -51.41922   0.0219  406.  374.   -51.40316
block <Epot> / <T> :     -51.42505  374.     drift: -0.13D-05   Tbath : 310.
  50200  200.80    -51.41924   0.0219  406.  374.   -51.40316
  50400  201.60    -51.41926   0.0219  406.  374.   -51.40315
  50600  202.40    -51.41929   0.0219  405.  374.   -51.40315
  50800  203.20    -51.41931   0.0219  405.  374.   -51.40315
  51000  204.00    -51.41933   0.0219  405.  374.   -51.40315
  51200  204.80    -51.41936   0.0219  405.  374.   -51.40315
block <Epot> / <T> :     -51.42505  374.     drift: -0.14D-05   Tbath : 310.
  51400  205.60    -51.41938   0.0219  405.  374.   -51.40315
  51600  206.40    -51.41940   0.0219  405.  374.   -51.40316
  51800  207.20    -51.41942   0.0219  405.  374.   -51.40316
  52000  208.00    -51.41944   0.0219  405.  374.   -51.40316
  52200  208.80    -51.41946   0.0219  404.  374.   -51.40317
  52400  209.60    -51.41949   0.0219  404.  374.   -51.40317
block <Epot> / <T> :     -51.42505  374.     drift: -0.14D-05   Tbath : 310.
  52600  210.40    -51.41951   0.0219  404.  374.   -51.40316
  52800  211.20    -51.41953   0.0219  404.  374.   -51.40316
  53000  212.00    -51.41955   0.0219  404.  374.   -51.40316
  53200  212.80    -51.41957   0.0219  404.  374.   -51.40315
  53400  213.60    -51.41959   0.0219  404.  374.   -51.40315
  53600  214.40    -51.41961   0.0219  404.  374.   -51.40315
block <Epot> / <T> :     -51.42506  374.     drift: -0.14D-05   Tbath : 310.
  53800  215.20    -51.41963   0.0219  404.  374.   -51.40316
  54000  216.00    -51.41965   0.0219  403.  374.   -51.40316
  54200  216.80    -51.41967   0.0219  403.  374.   -51.40317
  54400  217.60    -51.41969   0.0219  403.  374.   -51.40317
  54600  218.40    -51.41971   0.0219  403.  374.   -51.40317
  54800  219.20    -51.41973   0.0219  403.  374.   -51.40316
  55000  220.00    -51.41975   0.0219  403.  374.   -51.40316
block <Epot> / <T> :     -51.42506  374.     drift: -0.11D-05   Tbath : 310.
  55200  220.80    -51.41977   0.0219  403.  374.   -51.40316
  55400  221.60    -51.41979   0.0219  403.  374.   -51.40316
  55600  222.40    -51.41981   0.0219  403.  374.   -51.40316
  55800  223.20    -51.41983   0.0219  402.  374.   -51.40316
  56000  224.00    -51.41984   0.0219  402.  374.   -51.40316
  56200  224.80    -51.41986   0.0219  402.  374.   -51.40316
block <Epot> / <T> :     -51.42506  374.     drift: -0.97D-06   Tbath : 310.
  56400  225.60    -51.41988   0.0219  402.  374.   -51.40316
  56600  226.40    -51.41990   0.0219  402.  374.   -51.40316
  56800  227.20    -51.41992   0.0219  402.  374.   -51.40317
  57000  228.00    -51.41994   0.0219  402.  374.   -51.40317
  57200  228.80    -51.41995   0.0219  402.  374.   -51.40317
  57400  229.60    -51.41997   0.0219  402.  374.   -51.40317
block <Epot> / <T> :     -51.42506  374.     drift: -0.84D-06   Tbath : 310.
  57600  230.40    -51.41999   0.0219  402.  374.   -51.40317
  57800  231.20    -51.42001   0.0219  401.  374.   -51.40316
  58000  232.00    -51.42002   0.0219  401.  374.   -51.40316
  58200  232.80    -51.42004   0.0219  401.  374.   -51.40315
  58400  233.60    -51.42006   0.0219  401.  374.   -51.40315
  58600  234.40    -51.42008   0.0219  401.  374.   -51.40316
block <Epot> / <T> :     -51.42506  374.     drift: -0.71D-06   Tbath : 310.
  58800  235.20    -51.42009   0.0219  401.  374.   -51.40316
  59000  236.00    -51.42011   0.0219  401.  374.   -51.40317
  59200  236.80    -51.42013   0.0219  401.  374.   -51.40317
  59400  237.60    -51.42014   0.0219  401.  374.   -51.40318
  59600  238.40    -51.42016   0.0219  401.  374.   -51.40318
  59800  239.20    -51.42018   0.0219  401.  374.   -51.40317
  60000  240.00    -51.42019   0.0219  400.  374.   -51.40316
block <Epot> / <T> :     -51.42506  374.     drift: -0.48D-06   Tbath : 310.
  60200  240.80    -51.42021   0.0219  400.  374.   -51.40316
  60400  241.60    -51.42022   0.0219  400.  374.   -51.40315
  60600  242.40    -51.42024   0.0219  400.  374.   -51.40316
  60800  243.20    -51.42026   0.0219  400.  374.   -51.40316
  61000  244.00    -51.42027   0.0219  400.  374.   -51.40316
  61200  244.80    -51.42029   0.0219  400.  374.   -51.40317
block <Epot> / <T> :     -51.42506  374.     drift: -0.39D-06   Tbath : 310.
  61400  245.60    -51.42030   0.0219  400.  374.   -51.40317
  61600  246.40    -51.42032   0.0219  400.  374.   -51.40318
  61800  247.20    -51.42033   0.0219  400.  374.   -51.40317
  62000  248.00    -51.42035   0.0219  400.  374.   -51.40317
  62200  248.80    -51.42036   0.0219  399.  374.   -51.40317
  62400  249.60    -51.42038   0.0219  399.  374.   -51.40316
block <Epot> / <T> :     -51.42506  374.     drift: -0.35D-06   Tbath : 310.
  62600  250.40    -51.42039   0.0219  399.  374.   -51.40316
  62800  251.20    -51.42041   0.0219  399.  374.   -51.40316
  63000  252.00    -51.42042   0.0219  399.  374.   -51.40316
  63200  252.80    -51.42044   0.0219  399.  374.   -51.40316
  63400  253.60    -51.42045   0.0219  399.  374.   -51.40316
  63600  254.40    -51.42047   0.0219  399.  374.   -51.40317
block <Epot> / <T> :     -51.42506  374.     drift: -0.33D-06   Tbath : 310.
  63800  255.20    -51.42048   0.0219  399.  373.   -51.40318
  64000  256.00    -51.42050   0.0219  399.  374.   -51.40317
  64200  256.80    -51.42051   0.0219  399.  374.   -51.40317
  64400  257.60    -51.42052   0.0219  399.  374.   -51.40317
  64600  258.40    -51.42054   0.0219  399.  374.   -51.40317
  64800  259.20    -51.42055   0.0219  398.  374.   -51.40316
  65000  260.00    -51.42057   0.0219  398.  374.   -51.40316
block <Epot> / <T> :     -51.42506  374.     drift: -0.26D-06   Tbath : 310.
  65200  260.80    -51.42058   0.0219  398.  374.   -51.40316
  65400  261.60    -51.42059   0.0219  398.  374.   -51.40316
  65600  262.40    -51.42061   0.0219  398.  374.   -51.40316
  65800  263.20    -51.42062   0.0219  398.  374.   -51.40317
  66000  264.00    -51.42063   0.0219  398.  374.   -51.40317
  66200  264.80    -51.42065   0.0219  398.  374.   -51.40318
block <Epot> / <T> :     -51.42506  374.     drift: -0.25D-06   Tbath : 310.
  66400  265.60    -51.42066   0.0219  398.  373.   -51.40318
  66600  266.40    -51.42067   0.0219  398.  374.   -51.40317
  66800  267.20    -51.42069   0.0219  398.  374.   -51.40317
  67000  268.00    -51.42070   0.0219  398.  374.   -51.40316
  67200  268.80    -51.42071   0.0219  398.  374.   -51.40316
  67400  269.60    -51.42073   0.0219  398.  374.   -51.40316
block <Epot> / <T> :     -51.42506  374.     drift: -0.26D-06   Tbath : 310.
  67600  270.40    -51.42074   0.0219  397.  374.   -51.40316
  67800  271.20    -51.42075   0.0219  397.  374.   -51.40316
  68000  272.00    -51.42076   0.0219  397.  374.   -51.40316
  68200  272.80    -51.42078   0.0219  397.  374.   -51.40317
  68400  273.60    -51.42079   0.0219  397.  374.   -51.40317
  68600  274.40    -51.42080   0.0219  397.  373.   -51.40318
  68800  275.20    -51.42081   0.0219  397.  374.   -51.40317
block <Epot> / <T> :     -51.42506  374.     drift: -0.29D-06   Tbath : 310.
  69000  276.00    -51.42083   0.0219  397.  374.   -51.40317
  69200  276.80    -51.42084   0.0219  397.  374.   -51.40317
  69400  277.60    -51.42085   0.0219  397.  374.   -51.40317
  69600  278.40    -51.42086   0.0219  397.  374.   -51.40316
  69800  279.20    -51.42088   0.0219  397.  374.   -51.40316
  70000  280.00    -51.42089   0.0219  397.  374.   -51.40316
block <Epot> / <T> :     -51.42506  374.     drift: -0.29D-06   Tbath : 310.
  70200  280.80    -51.42090   0.0219  397.  374.   -51.40316
  70400  281.60    -51.42091   0.0219  396.  374.   -51.40316
  70600  282.40    -51.42092   0.0219  396.  374.   -51.40317
  70800  283.20    -51.42093   0.0219  396.  374.   -51.40317
  71000  284.00    -51.42095   0.0219  396.  374.   -51.40317
  71200  284.80    -51.42096   0.0219  396.  374.   -51.40318
block <Epot> / <T> :     -51.42506  374.     drift: -0.27D-06   Tbath : 310.
  71400  285.60    -51.42097   0.0219  396.  374.   -51.40318
  71600  286.40    -51.42098   0.0219  396.  374.   -51.40318
  71800  287.20    -51.42099   0.0219  396.  374.   -51.40317
  72000  288.00    -51.42100   0.0219  396.  374.   -51.40316
  72200  288.80    -51.42101   0.0219  396.  374.   -51.40316
  72400  289.60    -51.42103   0.0219  396.  374.   -51.40315
block <Epot> / <T> :     -51.42506  374.     drift: -0.26D-06   Tbath : 310.
  72600  290.40    -51.42104   0.0219  396.  374.   -51.40316
  72800  291.20    -51.42105   0.0219  396.  374.   -51.40316
  73000  292.00    -51.42106   0.0219  396.  374.   -51.40316
  73200  292.80    -51.42107   0.0219  396.  374.   -51.40317
  73400  293.60    -51.42108   0.0219  396.  374.   -51.40317
  73600  294.40    -51.42109   0.0219  396.  374.   -51.40318
  73800  295.20    -51.42110   0.0219  395.  374.   -51.40318
block <Epot> / <T> :     -51.42506  374.     drift: -0.29D-06   Tbath : 310.
  74000  296.00    -51.42111   0.0219  395.  374.   -51.40318
  74200  296.80    -51.42112   0.0219  395.  374.   -51.40317
  74400  297.60    -51.42113   0.0219  395.  374.   -51.40317
  74600  298.40    -51.42114   0.0219  395.  374.   -51.40316
  74800  299.20    -51.42115   0.0219  395.  374.   -51.40316
  75000  300.00    -51.42117   0.0219  395.  374.   -51.40316
block <Epot> / <T> :     -51.42506  374.     drift: -0.33D-06   Tbath : 310.
  75200  300.80    -51.42118   0.0219  395.  374.   -51.40316
  75400  301.60    -51.42119   0.0219  395.  374.   -51.40317
  75600  302.40    -51.42120   0.0219  395.  374.   -51.40317
  75800  303.20    -51.42121   0.0219  395.  374.   -51.40317
  76000  304.00    -51.42122   0.0219  395.  374.   -51.40317
  76200  304.80    -51.42123   0.0219  395.  374.   -51.40318
block <Epot> / <T> :     -51.42506  374.     drift: -0.33D-06   Tbath : 310.
  76400  305.60    -51.42124   0.0219  395.  374.   -51.40318
  76600  306.40    -51.42125   0.0219  395.  374.   -51.40317
  76800  307.20    -51.42126   0.0219  395.  374.   -51.40317
  77000  308.00    -51.42127   0.0219  395.  374.   -51.40317
  77200  308.80    -51.42128   0.0219  394.  374.   -51.40316
  77400  309.60    -51.42129   0.0219  394.  374.   -51.40316
block <Epot> / <T> :     -51.42506  374.     drift: -0.31D-06   Tbath : 310.
  77600  310.40    -51.42130   0.0219  394.  374.   -51.40316
  77800  311.20    -51.42131   0.0219  394.  374.   -51.40316
  78000  312.00    -51.42132   0.0219  394.  374.   -51.40317
  78200  312.80    -51.42132   0.0219  394.  374.   -51.40317
  78400  313.60    -51.42133   0.0219  394.  374.   -51.40318
  78600  314.40    -51.42134   0.0219  394.  374.   -51.40318
  78800  315.20    -51.42135   0.0219  394.  374.   -51.40318
block <Epot> / <T> :     -51.42506  374.     drift: -0.30D-06   Tbath : 310.
  79000  316.00    -51.42136   0.0219  394.  374.   -51.40318
  79200  316.80    -51.42137   0.0219  394.  374.   -51.40317
  79400  317.60    -51.42138   0.0219  394.  374.   -51.40317
  79600  318.40    -51.42139   0.0219  394.  374.   -51.40316
  79800  319.20    -51.42140   0.0219  394.  374.   -51.40316
  80000  320.00    -51.42141   0.0219  394.  374.   -51.40316
block <Epot> / <T> :     -51.42506  374.     drift: -0.30D-06   Tbath : 310.
  80200  320.80    -51.42142   0.0219  394.  374.   -51.40316
  80400  321.60    -51.42143   0.0219  394.  374.   -51.40317
  80600  322.40    -51.42144   0.0219  394.  374.   -51.40317
  80800  323.20    -51.42145   0.0219  394.  374.   -51.40317
  81000  324.00    -51.42145   0.0219  394.  374.   -51.40318
  81200  324.80    -51.42146   0.0219  393.  374.   -51.40318
block <Epot> / <T> :     -51.42506  374.     drift: -0.31D-06   Tbath : 310.
  81400  325.60    -51.42147   0.0219  393.  374.   -51.40318
  81600  326.40    -51.42148   0.0219  393.  374.   -51.40318
  81800  327.20    -51.42149   0.0219  393.  374.   -51.40317
  82000  328.00    -51.42150   0.0219  393.  374.   -51.40317
  82200  328.80    -51.42151   0.0219  393.  374.   -51.40316
  82400  329.60    -51.42152   0.0219  393.  374.   -51.40316
block <Epot> / <T> :     -51.42506  374.     drift: -0.31D-06   Tbath : 310.
  82600  330.40    -51.42152   0.0219  393.  374.   -51.40316
  82800  331.20    -51.42153   0.0219  393.  374.   -51.40316
  83000  332.00    -51.42154   0.0219  393.  374.   -51.40317
  83200  332.80    -51.42155   0.0219  393.  374.   -51.40317
  83400  333.60    -51.42156   0.0219  393.  374.   -51.40317
  83600  334.40    -51.42157   0.0219  393.  374.   -51.40318
  83800  335.20    -51.42157   0.0219  393.  374.   -51.40318
block <Epot> / <T> :     -51.42506  374.     drift: -0.31D-06   Tbath : 310.
  84000  336.00    -51.42158   0.0219  393.  374.   -51.40318
  84200  336.80    -51.42159   0.0219  393.  374.   -51.40318
  84400  337.60    -51.42160   0.0219  393.  374.   -51.40317
  84600  338.40    -51.42161   0.0219  393.  374.   -51.40317
  84800  339.20    -51.42162   0.0219  393.  374.   -51.40316
  85000  340.00    -51.42162   0.0219  393.  374.   -51.40316
block <Epot> / <T> :     -51.42507  374.     drift: -0.31D-06   Tbath : 310.
  85200  340.80    -51.42163   0.0219  393.  374.   -51.40316
  85400  341.60    -51.42164   0.0219  392.  374.   -51.40317
  85600  342.40    -51.42165   0.0219  392.  374.   -51.40317
  85800  343.20    -51.42166   0.0219  392.  374.   -51.40317
  86000  344.00    -51.42166   0.0219  392.  374.   -51.40318
  86200  344.80    -51.42167   0.0219  392.  374.   -51.40318
block <Epot> / <T> :     -51.42507  374.     drift: -0.32D-06   Tbath : 310.
  86400  345.60    -51.42168   0.0219  392.  374.   -51.40318
  86600  346.40    -51.42169   0.0219  392.  374.   -51.40318
  86800  347.20    -51.42170   0.0219  392.  374.   -51.40317
  87000  348.00    -51.42170   0.0219  392.  374.   -51.40317
  87200  348.80    -51.42171   0.0219  392.  374.   -51.40317
  87400  349.60    -51.42172   0.0219  392.  374.   -51.40316
block <Epot> / <T> :     -51.42507  374.     drift: -0.32D-06   Tbath : 310.
  87600  350.40    -51.42173   0.0219  392.  374.   -51.40316
  87800  351.20    -51.42173   0.0219  392.  374.   -51.40316
  88000  352.00    -51.42174   0.0219  392.  374.   -51.40317
  88200  352.80    -51.42175   0.0219  392.  374.   -51.40318
  88400  353.60    -51.42176   0.0219  392.  374.   -51.40318
  88600  354.40    -51.42176   0.0219  392.  373.   -51.40318
  88800  355.20    -51.42177   0.0219  392.  374.   -51.40314
block <Epot> / <T> :     -51.42506  374.     drift:  0.24D-06   Tbath : 310.
  89000  356.00    -51.42178   0.0219  392.  374.   -51.40316
  89200  356.80    -51.42179   0.0219  392.  374.   -51.40315
  89400  357.60    -51.42179   0.0219  392.  374.   -51.40317
  89600  358.40    -51.42180   0.0219  392.  374.   -51.40317
  89800  359.20    -51.42181   0.0219  392.  374.   -51.40318
  90000  360.00    -51.42182   0.0219  392.  374.   -51.40317
block <Epot> / <T> :     -51.42507  374.     drift:  0.19D-06   Tbath : 310.
  90200  360.80    -51.42182   0.0219  391.  374.   -51.40318
  90400  361.60    -51.42183   0.0219  391.  374.   -51.40316
  90600  362.40    -51.42184   0.0219  391.  374.   -51.40317
  90800  363.20    -51.42184   0.0219  391.  374.   -51.40317
  91000  364.00    -51.42185   0.0219  391.  374.   -51.40317
  91200  364.80    -51.42186   0.0219  391.  374.   -51.40317
block <Epot> / <T> :     -51.42507  374.     drift: -0.30D-06   Tbath : 310.
  91400  365.60    -51.42186   0.0219  391.  374.   -51.40318
  91600  366.40    -51.42187   0.0219  391.  374.   -51.40317
  91800  367.20    -51.42188   0.0219  391.  374.   -51.40317
  92000  368.00    -51.42189   0.0219  391.  374.   -51.40316
  92200  368.80    -51.42189   0.0219  391.  374.   -51.40316
  92400  369.60    -51.42190   0.0219  391.  374.   -51.40317
block <Epot> / <T> :     -51.42507  374.     drift: -0.94D-06   Tbath : 310.
  92600  370.40    -51.42191   0.0219  391.  374.   -51.40317
  92800  371.20    -51.42191   0.0219  391.  374.   -51.40317
  93000  372.00    -51.42192   0.0219  391.  374.   -51.40317
  93200  372.80    -51.42193   0.0219  391.  374.   -51.40317
  93400  373.60    -51.42193   0.0219  391.  374.   -51.40317
  93600  374.40    -51.42194   0.0219  391.  374.   -51.40317
  93800  375.20    -51.42195   0.0219  391.  374.   -51.40317
block <Epot> / <T> :     -51.42507  374.     drift: -0.69D-06   Tbath : 310.
  94000  376.00    -51.42195   0.0219  391.  374.   -51.40317
  94200  376.80    -51.42196   0.0219  391.  374.   -51.40317
  94400  377.60    -51.42197   0.0219  391.  374.   -51.40317
  94600  378.40    -51.42197   0.0219  391.  374.   -51.40317
  94800  379.20    -51.42198   0.0219  391.  374.   -51.40317
  95000  380.00    -51.42199   0.0219  391.  374.   -51.40317
block <Epot> / <T> :     -51.42507  374.     drift: -0.47D-06   Tbath : 310.
  95200  380.80    -51.42199   0.0219  391.  374.   -51.40317
  95400  381.60    -51.42200   0.0219  391.  374.   -51.40317
  95600  382.40    -51.42201   0.0219  390.  374.   -51.40317
  95800  383.20    -51.42201   0.0219  390.  374.   -51.40317
  96000  384.00    -51.42202   0.0219  390.  374.   -51.40317
  96200  384.80    -51.42202   0.0219  390.  374.   -51.40317
block <Epot> / <T> :     -51.42507  374.     drift: -0.40D-06   Tbath : 310.
  96400  385.60    -51.42203   0.0219  390.  374.   -51.40317
  96600  386.40    -51.42204   0.0219  390.  374.   -51.40317
  96800  387.20    -51.42204   0.0219  390.  374.   -51.40317
  97000  388.00    -51.42205   0.0219  390.  374.   -51.40317
  97200  388.80    -51.42206   0.0219  390.  374.   -51.40317
  97400  389.60    -51.42206   0.0219  390.  374.   -51.40317
block <Epot> / <T> :     -51.42507  374.     drift: -0.37D-06   Tbath : 310.
  97600  390.40    -51.42207   0.0219  390.  374.   -51.40317
  97800  391.20    -51.42207   0.0219  390.  374.   -51.40317
  98000  392.00    -51.42208   0.0219  390.  374.   -51.40317
  98200  392.80    -51.42209   0.0219  390.  374.   -51.40317
  98400  393.60    -51.42209   0.0219  390.  374.   -51.40317
  98600  394.40    -51.42210   0.0219  390.  374.   -51.40317
  98800  395.20    -51.42210   0.0219  390.  374.   -51.40317
block <Epot> / <T> :     -51.42507  374.     drift: -0.37D-06   Tbath : 310.
  99000  396.00    -51.42211   0.0219  390.  374.   -51.40317
  99200  396.80    -51.42212   0.0219  390.  374.   -51.40317
  99400  397.60    -51.42212   0.0219  390.  374.   -51.40317
  99600  398.40    -51.42213   0.0219  390.  374.   -51.40317
  99800  399.20    -51.42213   0.0219  390.  374.   -51.40317
 100000  400.00    -51.42214   0.0219  390.  374.   -51.40317
block <Epot> / <T> :     -51.42507  374.     drift: -0.37D-06   Tbath : 310.
 100200  400.80    -51.42215   0.0219  390.  374.   -51.40317
 100400  401.60    -51.42215   0.0219  390.  374.   -51.40317
 100600  402.40    -51.42216   0.0219  390.  374.   -51.40318
 100800  403.20    -51.42216   0.0219  390.  374.   -51.40318
 101000  404.00    -51.42217   0.0219  390.  374.   -51.40317
 101200  404.80    -51.42218   0.0219  390.  374.   -51.40318
block <Epot> / <T> :     -51.42507  374.     drift: -0.37D-06   Tbath : 310.
 101400  405.60    -51.42218   0.0219  390.  374.   -51.40317
 101600  406.40    -51.42219   0.0219  390.  374.   -51.40317
 101800  407.20    -51.42219   0.0219  389.  374.   -51.40317
 102000  408.00    -51.42220   0.0219  389.  374.   -51.40318
 102200  408.80    -51.42220   0.0219  389.  374.   -51.40317
 102400  409.60    -51.42221   0.0219  389.  374.   -51.40318
block <Epot> / <T> :     -51.42507  374.     drift: -0.37D-06   Tbath : 310.
 102600  410.40    -51.42221   0.0219  389.  374.   -51.40317
 102800  411.20    -51.42222   0.0219  389.  374.   -51.40317
 103000  412.00    -51.42223   0.0219  389.  374.   -51.40318
 103200  412.80    -51.42223   0.0219  389.  374.   -51.40317
 103400  413.60    -51.42224   0.0219  389.  374.   -51.40318
 103600  414.40    -51.42224   0.0219  389.  374.   -51.40318
 103800  415.20    -51.42225   0.0219  389.  374.   -51.40318
block <Epot> / <T> :     -51.42507  374.     drift: -0.38D-06   Tbath : 310.
 104000  416.00    -51.42225   0.0219  389.  374.   -51.40318
 104200  416.80    -51.42226   0.0219  389.  374.   -51.40317
 104400  417.60    -51.42226   0.0219  389.  374.   -51.40318
 104600  418.40    -51.42227   0.0219  389.  374.   -51.40318
 104800  419.20    -51.42227   0.0219  389.  374.   -51.40318
 105000  420.00    -51.42228   0.0219  389.  374.   -51.40318
block <Epot> / <T> :     -51.42507  374.     drift: -0.39D-06   Tbath : 310.
 105200  420.80    -51.42229   0.0219  389.  374.   -51.40318
 105400  421.60    -51.42229   0.0219  389.  374.   -51.40318
 105600  422.40    -51.42230   0.0219  389.  374.   -51.40318
 105800  423.20    -51.42230   0.0219  389.  374.   -51.40318
 106000  424.00    -51.42231   0.0219  389.  374.   -51.40318
 106200  424.80    -51.42231   0.0219  389.  374.   -51.40318
block <Epot> / <T> :     -51.42507  374.     drift: -0.40D-06   Tbath : 310.
 106400  425.60    -51.42232   0.0219  389.  374.   -51.40318
 106600  426.40    -51.42232   0.0219  389.  374.   -51.40318
 106800  427.20    -51.42233   0.0219  389.  374.   -51.40318
 107000  428.00    -51.42233   0.0219  389.  374.   -51.40318
 107200  428.80    -51.42234   0.0219  389.  374.   -51.40318
 107400  429.60    -51.42234   0.0219  389.  374.   -51.40318
block <Epot> / <T> :     -51.42507  374.     drift: -0.40D-06   Tbath : 310.
 107600  430.40    -51.42235   0.0219  389.  374.   -51.40318
 107800  431.20    -51.42235   0.0219  389.  374.   -51.40318
 108000  432.00    -51.42236   0.0219  389.  374.   -51.40318
 108200  432.80    -51.42236   0.0219  389.  374.   -51.40318
 108400  433.60    -51.42237   0.0219  389.  374.   -51.40318
 108600  434.40    -51.42237   0.0219  388.  374.   -51.40318
 108800  435.20    -51.42238   0.0219  388.  374.   -51.40318
block <Epot> / <T> :     -51.42507  374.     drift: -0.40D-06   Tbath : 310.
 109000  436.00    -51.42238   0.0219  388.  374.   -51.40317
 109200  436.80    -51.42239   0.0219  388.  374.   -51.40318
 109400  437.60    -51.42239   0.0221  388.  377.   -51.40258
 109600  438.40    -51.42240   0.0222  388.  379.   -51.40240
 109800  439.20    -51.42240   0.0219  388.  374.   -51.40287
 110000  440.00    -51.42240   0.0221  388.  377.   -51.40267
block <Epot> / <T> :     -51.42485  377.     drift:  0.65D-04   Tbath : 310.
 110200  440.80    -51.42241   0.0221  388.  377.   -51.40276
 110400  441.60    -51.42241   0.0221  388.  377.   -51.40285
 110600  442.40    -51.42242   0.0219  388.  374.   -51.40295
 110800  443.20    -51.42242   0.0219  388.  375.   -51.40299
 111000  444.00    -51.42243   0.0221  388.  378.   -51.40286
 111200  444.80    -51.42243   0.0221  388.  377.   -51.40284
block <Epot> / <T> :     -51.42491  376.     drift:  0.71D-04   Tbath : 310.
 111400  445.60    -51.42244   0.0220  388.  376.   -51.40295
 111600  446.40    -51.42244   0.0221  388.  377.   -51.40291
 111800  447.20    -51.42245   0.0218  388.  373.   -51.40319
 112000  448.00    -51.42245   0.0219  388.  374.   -51.40311
 112200  448.80    -51.42245   0.0220  388.  375.   -51.40307
 112400  449.60    -51.42246   0.0219  388.  373.   -51.40315
block <Epot> / <T> :     -51.42501  375.     drift:  0.14D-04   Tbath : 310.
 112600  450.40    -51.42246   0.0220  388.  375.   -51.40305
 112800  451.20    -51.42247   0.0219  388.  374.   -51.40313
 113000  452.00    -51.42247   0.0219  388.  374.   -51.40315
 113200  452.80    -51.42248   0.0220  388.  375.   -51.40309
 113400  453.60    -51.42248   0.0219  388.  375.   -51.40310
 113600  454.40    -51.42249   0.0219  388.  374.   -51.40314
 113800  455.20    -51.42249   0.0219  388.  374.   -51.40314
block <Epot> / <T> :     -51.42505  374.     drift: -0.69D-04   Tbath : 310.
 114000  456.00    -51.42250   0.0219  388.  373.   -51.40320
 114200  456.80    -51.42250   0.0219  388.  374.   -51.40316
 114400  457.60    -51.42250   0.0219  388.  374.   -51.40318
 114600  458.40    -51.42251   0.0219  388.  374.   -51.40315
 114800  459.20    -51.42251   0.0219  388.  374.   -51.40316
 115000  460.00    -51.42252   0.0219  388.  374.   -51.40318
block <Epot> / <T> :     -51.42507  374.     drift: -0.52D-04   Tbath : 310.
 115200  460.80    -51.42252   0.0219  388.  374.   -51.40317
 115400  461.60    -51.42253   0.0219  388.  374.   -51.40318
 115600  462.40    -51.42253   0.0219  388.  374.   -51.40317
 115800  463.20    -51.42254   0.0219  388.  374.   -51.40316
 116000  464.00    -51.42254   0.0219  388.  374.   -51.40319
 116200  464.80    -51.42254   0.0226  388.  385.   -51.40203
block <Epot> / <T> :     -51.42501  375.     drift: -0.33D-05   Tbath : 310.
 116400  465.60    -51.42255   0.0226  388.  386.   -51.40206
 116600  466.40    -51.42255   0.0225  388.  385.   -51.40243
 116800  467.20    -51.42255   0.0222  388.  379.   -51.40267
 117000  468.00    -51.42256   0.0219  388.  373.   -51.40290
 117200  468.80    -51.42256   0.0218  388.  373.   -51.40297
 117400  469.60    -51.42257   0.0219  388.  375.   -51.40292
block <Epot> / <T> :     -51.42481  378.     drift:  0.77D-04   Tbath : 310.
 117600  470.40    -51.42257   0.0220  387.  375.   -51.40296
 117800  471.20    -51.42257   0.0220  387.  376.   -51.40294
 118000  472.00    -51.42258   0.0220  387.  375.   -51.40294
 118200  472.80    -51.42258   0.0219  387.  374.   -51.40307
 118400  473.60    -51.42259   0.0222  387.  379.   -51.40280
 118600  474.40    -51.42259   0.0221  387.  377.   -51.40288
 118800  475.20    -51.42259   0.0220  387.  376.   -51.40297
block <Epot> / <T> :     -51.42497  375.     drift:  0.49D-04   Tbath : 310.
 119000  476.00    -51.42260   0.0220  387.  376.   -51.40300
 119200  476.80    -51.42260   0.0219  387.  373.   -51.40316
 119400  477.60    -51.42261   0.0219  387.  373.   -51.40318
 119600  478.40    -51.42261   0.0219  387.  374.   -51.40312
 119800  479.20    -51.42262   0.0218  387.  372.   -51.40322
 120000  480.00    -51.42262   0.0219  387.  374.   -51.40315
block <Epot> / <T> :     -51.42504  374.     drift: -0.23D-04   Tbath : 310.
 120200  480.80    -51.42262   0.0219  387.  373.   -51.40319
 120400  481.60    -51.42263   0.0219  387.  375.   -51.40312
 120600  482.40    -51.42263   0.0220  387.  375.   -51.40310
 120800  483.20    -51.42264   0.0220  387.  375.   -51.40311
 121000  484.00    -51.42264   0.0220  387.  375.   -51.40307
 121200  484.80    -51.42264   0.0219  387.  374.   -51.40317
block <Epot> / <T> :     -51.42506  374.     drift: -0.82D-04   Tbath : 310.
 121400  485.60    -51.42265   0.0219  387.  374.   -51.40318
 121600  486.40    -51.42265   0.0219  387.  373.   -51.40320
 121800  487.20    -51.42266   0.0218  387.  373.   -51.40323
 122000  488.00    -51.42266   0.0219  387.  374.   -51.40316
 122200  488.80    -51.42266   0.0219  387.  374.   -51.40319
 122400  489.60    -51.42267   0.0219  387.  374.   -51.40318
block <Epot> / <T> :     -51.42507  374.     drift: -0.33D-04   Tbath : 310.
 122600  490.40    -51.42267   0.0219  387.  374.   -51.40316
 122800  491.20    -51.42268   0.0219  387.  374.   -51.40318
 123000  492.00    -51.42268   0.0219  387.  374.   -51.40315
 123200  492.80    -51.42268   0.0219  387.  374.   -51.40317
 123400  493.60    -51.42269   0.0219  387.  374.   -51.40318
 123600  494.40    -51.42269   0.0219  387.  374.   -51.40318
 123800  495.20    -51.42269   0.0219  387.  374.   -51.40319
block <Epot> / <T> :     -51.42508  374.     drift: -0.13D-04   Tbath : 310.
 124000  496.00    -51.42270   0.0219  387.  374.   -51.40319
 124200  496.80    -51.42270   0.0219  387.  374.   -51.40318
 124400  497.60    -51.42271   0.0219  387.  374.   -51.40319
 124600  498.40    -51.42271   0.0219  387.  374.   -51.40318
 124800  499.20    -51.42271   0.0219  387.  374.   -51.40319
 125000  500.00    -51.42272   0.0219  387.  374.   -51.40318
block <Epot> / <T> :     -51.42508  374.     drift: -0.47D-05   Tbath : 310.
 125200  500.80    -51.42272   0.0219  387.  374.   -51.40318
 125400  501.60    -51.42272   0.0219  387.  374.   -51.40318
 125600  502.40    -51.42273   0.0219  387.  374.   -51.40317
 125800  503.20    -51.42273   0.0219  387.  374.   -51.40318
 126000  504.00    -51.42274   0.0219  387.  374.   -51.40318
 126200  504.80    -51.42274   0.0219  387.  374.   -51.40318
block <Epot> / <T> :     -51.42508  374.     drift: -0.19D-05   Tbath : 310.
 126400  505.60    -51.42274   0.0219  387.  374.   -51.40319
 126600  506.40    -51.42275   0.0219  387.  374.   -51.40318
 126800  507.20    -51.42275   0.0219  387.  374.   -51.40319
 127000  508.00    -51.42275   0.0219  386.  374.   -51.40319
 127200  508.80    -51.42276   0.0219  386.  374.   -51.40318
 127400  509.60    -51.42276   0.0219  386.  374.   -51.40318
 127600  510.40    -51.42277   0.0219  386.  374.   -51.40318
block <Epot> / <T> :     -51.42508  374.     drift: -0.10D-05   Tbath : 310.
 127800  511.20    -51.42277   0.0219  386.  374.   -51.40318
 128000  512.00    -51.42277   0.0219  386.  374.   -51.40318
 128200  512.80    -51.42278   0.0219  386.  374.   -51.40318
 128400  513.60    -51.42278   0.0219  386.  374.   -51.40318
 128600  514.40    -51.42278   0.0219  386.  374.   -51.40318
 128800  515.20    -51.42279   0.0219  386.  374.   -51.40318
block <Epot> / <T> :     -51.42508  374.     drift: -0.69D-06   Tbath : 310.
 129000  516.00    -51.42279   0.0219  386.  374.   -51.40318
 129200  516.80    -51.42279   0.0219  386.  374.   -51.40318
 129400  517.60    -51.42280   0.0219  386.  374.   -51.40318
 129600  518.40    -51.42280   0.0219  386.  374.   -51.40318
 129800  519.20    -51.42280   0.0219  386.  374.   -51.40318
 130000  520.00    -51.42281   0.0219  386.  374.   -51.40318
block <Epot> / <T> :     -51.42508  374.     drift: -0.62D-06   Tbath : 310.
 130200  520.80    -51.42281   0.0219  386.  374.   -51.40318
 130400  521.60    -51.42282   0.0219  386.  374.   -51.40318
 130600  522.40    -51.42282   0.0219  386.  374.   -51.40318
 130800  523.20    -51.42282   0.0219  386.  374.   -51.40318
 131000  524.00    -51.42283   0.0219  386.  374.   -51.40318
 131200  524.80    -51.42283   0.0219  386.  374.   -51.40318
block <Epot> / <T> :     -51.42508  374.     drift: -0.60D-06   Tbath : 310.
 131400  525.60    -51.42283   0.0219  386.  374.   -51.40318
 131600  526.40    -51.42284   0.0219  386.  374.   -51.40318
 131800  527.20    -51.42284   0.0219  386.  374.   -51.40318
 132000  528.00    -51.42284   0.0219  386.  374.   -51.40318
 132200  528.80    -51.42285   0.0219  386.  374.   -51.40318
 132400  529.60    -51.42285   0.0219  386.  374.   -51.40318
 132600  530.40    -51.42285   0.0219  386.  374.   -51.40318
block <Epot> / <T> :     -51.42508  374.     drift: -0.60D-06   Tbath : 310.
 132800  531.20    -51.42286   0.0219  386.  374.   -51.40318
 133000  532.00    -51.42286   0.0219  386.  374.   -51.40318
 133200  532.80    -51.42286   0.0219  386.  374.   -51.40318
 133400  533.60    -51.42287   0.0219  386.  374.   -51.40318
 133600  534.40    -51.42287   0.0219  386.  374.   -51.40319
 133800  535.20    -51.42287   0.0219  386.  374.   -51.40319
block <Epot> / <T> :     -51.42508  374.     drift: -0.60D-06   Tbath : 310.
 134000  536.00    -51.42288   0.0219  386.  374.   -51.40319
 134200  536.80    -51.42288   0.0219  386.  374.   -51.40318
 134400  537.60    -51.42288   0.0219  386.  374.   -51.40318
 134600  538.40    -51.42289   0.0219  386.  374.   -51.40318
 134800  539.20    -51.42289   0.0219  386.  374.   -51.40319
 135000  540.00    -51.42289   0.0219  386.  374.   -51.40319
block <Epot> / <T> :     -51.42508  374.     drift: -0.60D-06   Tbath : 310.
 135200  540.80    -51.42290   0.0219  386.  374.   -51.40319
 135400  541.60    -51.42290   0.0219  386.  374.   -51.40319
 135600  542.40    -51.42290   0.0219  386.  374.   -51.40319
 135800  543.20    -51.42291   0.0219  386.  374.   -51.40319
 136000  544.00    -51.42291   0.0219  386.  374.   -51.40318
 136200  544.80    -51.42291   0.0219  386.  374.   -51.40319
block <Epot> / <T> :     -51.42508  374.     drift: -0.60D-06   Tbath : 310.
 136400  545.60    -51.42291   0.0219  386.  374.   -51.40319
 136600  546.40    -51.42292   0.0219  386.  374.   -51.40319
 136800  547.20    -51.42292   0.0219  386.  374.   -51.40319
 137000  548.00    -51.42292   0.0219  386.  374.   -51.40319
 137200  548.80    -51.42293   0.0219  386.  374.   -51.40319
 137400  549.60    -51.42293   0.0219  386.  374.   -51.40319
 137600  550.40    -51.42293   0.0219  386.  374.   -51.40319
block <Epot> / <T> :     -51.42508  374.     drift: -0.59D-06   Tbath : 310.
 137800  551.20    -51.42294   0.0219  386.  374.   -51.40319
 138000  552.00    -51.42294   0.0219  385.  374.   -51.40319
 138200  552.80    -51.42294   0.0219  385.  374.   -51.40319
 138400  553.60    -51.42295   0.0219  385.  374.   -51.40319
 138600  554.40    -51.42295   0.0219  385.  374.   -51.40319
 138800  555.20    -51.42295   0.0219  385.  374.   -51.40319
block <Epot> / <T> :     -51.42508  374.     drift: -0.57D-06   Tbath : 310.
 139000  556.00    -51.42296   0.0219  385.  374.   -51.40319
 139200  556.80    -51.42296   0.0219  385.  374.   -51.40319
 139400  557.60    -51.42296   0.0219  385.  374.   -51.40319
 139600  558.40    -51.42296   0.0219  385.  374.   -51.40319
 139800  559.20    -51.42297   0.0219  385.  374.   -51.40319
 140000  560.00    -51.42297   0.0219  385.  374.   -51.40319
block <Epot> / <T> :     -51.42508  374.     drift: -0.56D-06   Tbath : 310.
 140200  560.80    -51.42297   0.0219  385.  374.   -51.40319
 140400  561.60    -51.42298   0.0219  385.  374.   -51.40319
 140600  562.40    -51.42298   0.0219  385.  374.   -51.40319
 140800  563.20    -51.42298   0.0219  385.  374.   -51.40319
 141000  564.00    -51.42299   0.0219  385.  374.   -51.40319
 141200  564.80    -51.42299   0.0219  385.  374.   -51.40319
block <Epot> / <T> :     -51.42509  374.     drift: -0.54D-06   Tbath : 310.
 141400  565.60    -51.42299   0.0219  385.  374.   -51.40319
 141600  566.40    -51.42299   0.0219  385.  374.   -51.40319
 141800  567.20    -51.42300   0.0219  385.  374.   -51.40319
 142000  568.00    -51.42300   0.0219  385.  374.   -51.40319
 142200  568.80    -51.42300   0.0219  385.  374.   -51.40319
 142400  569.60    -51.42301   0.0219  385.  374.   -51.40319
 142600  570.40    -51.42301   0.0219  385.  374.   -51.40319
block <Epot> / <T> :     -51.42509  374.     drift: -0.52D-06   Tbath : 310.
 142800  571.20    -51.42301   0.0219  385.  374.   -51.40319
 143000  572.00    -51.42302   0.0219  385.  374.   -51.40319
 143200  572.80    -51.42302   0.0219  385.  374.   -51.40319
 143400  573.60    -51.42302   0.0219  385.  374.   -51.40319
 143600  574.40    -51.42302   0.0219  385.  374.   -51.40319
 143800  575.20    -51.42303   0.0219  385.  374.   -51.40319
block <Epot> / <T> :     -51.42509  374.     drift: -0.51D-06   Tbath : 310.
 144000  576.00    -51.42303   0.0219  385.  374.   -51.40319
 144200  576.80    -51.42303   0.0219  385.  374.   -51.40319
 144400  577.60    -51.42304   0.0219  385.  374.   -51.40319
 144600  578.40    -51.42304   0.0219  385.  374.   -51.40319
 144800  579.20    -51.42304   0.0219  385.  374.   -51.40319
 145000  580.00    -51.42304   0.0219  385.  374.   -51.40319
block <Epot> / <T> :     -51.42509  374.     drift: -0.49D-06   Tbath : 310.
 145200  580.80    -51.42305   0.0219  385.  374.   -51.40319
 145400  581.60    -51.42305   0.0219  385.  374.   -51.40319
 145600  582.40    -51.42305   0.0219  385.  374.   -51.40319
 145800  583.20    -51.42305   0.0219  385.  374.   -51.40319
 146000  584.00    -51.42306   0.0219  385.  374.   -51.40319
 146200  584.80    -51.42306   0.0219  385.  374.   -51.40319
block <Epot> / <T> :     -51.42509  374.     drift: -0.48D-06   Tbath : 310.
 146400  585.60    -51.42306   0.0219  385.  374.   -51.40319
 146600  586.40    -51.42307   0.0219  385.  374.   -51.40319
 146800  587.20    -51.42307   0.0219  385.  374.   -51.40319
 147000  588.00    -51.42307   0.0219  385.  374.   -51.40319
 147200  588.80    -51.42307   0.0219  385.  374.   -51.40319
 147400  589.60    -51.42308   0.0219  385.  374.   -51.40319
 147600  590.40    -51.42308   0.0219  385.  374.   -51.40319
block <Epot> / <T> :     -51.42509  374.     drift: -0.47D-06   Tbath : 310.
 147800  591.20    -51.42308   0.0219  385.  374.   -51.40319
 148000  592.00    -51.42309   0.0219  385.  374.   -51.40319
 148200  592.80    -51.42309   0.0219  385.  374.   -51.40319
 148400  593.60    -51.42309   0.0219  385.  374.   -51.40319
 148600  594.40    -51.42309   0.0219  385.  374.   -51.40319
 148800  595.20    -51.42310   0.0219  385.  374.   -51.40319
block <Epot> / <T> :     -51.42509  374.     drift: -0.46D-06   Tbath : 310.
 149000  596.00    -51.42310   0.0219  385.  374.   -51.40319
 149200  596.80    -51.42310   0.0219  385.  374.   -51.40319
 149400  597.60    -51.42310   0.0219  385.  374.   -51.40319
 149600  598.40    -51.42311   0.0219  385.  374.   -51.40319
 149800  599.20    -51.42311   0.0219  385.  374.   -51.40319
 150000  600.00    -51.42311   0.0219  385.  374.   -51.40319
block <Epot> / <T> :     -51.42509  374.     drift: -0.45D-06   Tbath : 310.
 150200  600.80    -51.42311   0.0219  385.  374.   -51.40319
 150400  601.60    -51.42312   0.0219  385.  374.   -51.40319
 150600  602.40    -51.42312   0.0219  385.  374.   -51.40319
 150800  603.20    -51.42312   0.0219  384.  374.   -51.40319
 151000  604.00    -51.42312   0.0219  384.  374.   -51.40319
 151200  604.80    -51.42313   0.0219  384.  374.   -51.40319
block <Epot> / <T> :     -51.42509  374.     drift: -0.45D-06   Tbath : 310.
 151400  605.60    -51.42313   0.0219  384.  374.   -51.40319
 151600  606.40    -51.42313   0.0219  384.  374.   -51.40319
 151800  607.20    -51.42314   0.0219  384.  374.   -51.40319
 152000  608.00    -51.42314   0.0219  384.  374.   -51.40319
 152200  608.80    -51.42314   0.0219  384.  374.   -51.40319
 152400  609.60    -51.42314   0.0219  384.  374.   -51.40319
 152600  610.40    -51.42315   0.0219  384.  374.   -51.40319
block <Epot> / <T> :     -51.42509  374.     drift: -0.44D-06   Tbath : 310.
 152800  611.20    -51.42315   0.0219  384.  374.   -51.40319
 153000  612.00    -51.42315   0.0219  384.  374.   -51.40319
 153200  612.80    -51.42315   0.0219  384.  374.   -51.40319
 153400  613.60    -51.42316   0.0219  384.  374.   -51.40319
 153600  614.40    -51.42316   0.0219  384.  374.   -51.40319
 153800  615.20    -51.42316   0.0219  384.  374.   -51.40319
block <Epot> / <T> :     -51.42509  374.     drift: -0.44D-06   Tbath : 310.
 154000  616.00    -51.42316   0.0219  384.  374.   -51.40319
 154200  616.80    -51.42317   0.0219  384.  374.   -51.40319
 154400  617.60    -51.42317   0.0219  384.  374.   -51.40319
 154600  618.40    -51.42317   0.0219  384.  374.   -51.40319
 154800  619.20    -51.42317   0.0219  384.  374.   -51.40319
 155000  620.00    -51.42318   0.0219  384.  374.   -51.40319
block <Epot> / <T> :     -51.42509  374.     drift: -0.43D-06   Tbath : 310.
 155200  620.80    -51.42318   0.0219  384.  374.   -51.40319
 155400  621.60    -51.42318   0.0219  384.  374.   -51.40319
 155600  622.40    -51.42318   0.0219  384.  374.   -51.40318
 155800  623.20    -51.42319   0.0219  384.  373.   -51.40321
 156000  624.00    -51.42319   0.0219  384.  374.   -51.40318
 156200  624.80    -51.42319   0.0219  384.  374.   -51.40319
block <Epot> / <T> :     -51.42509  374.     drift:  0.31D-06   Tbath : 310.
 156400  625.60    -51.42319   0.0219  384.  374.   -51.40318
 156600  626.40    -51.42320   0.0219  384.  374.   -51.40317
 156800  627.20    -51.42320   0.0219  384.  374.   -51.40318
 157000  628.00    -51.42320   0.0219  384.  374.   -51.40319
 157200  628.80    -51.42320   0.0219  384.  374.   -51.40318
 157400  629.60    -51.42320   0.0219  384.  374.   -51.40321
 157600  630.40    -51.42321   0.0219  384.  374.   -51.40318
block <Epot> / <T> :     -51.42509  374.     drift:  0.25D-06   Tbath : 310.
 157800  631.20    -51.42321   0.0219  384.  374.   -51.40320
 158000  632.00    -51.42321   0.0219  384.  374.   -51.40319
 158200  632.80    -51.42321   0.0219  384.  374.   -51.40320
 158400  633.60    -51.42322   0.0219  384.  374.   -51.40320
 158600  634.40    -51.42322   0.0219  384.  374.   -51.40320
 158800  635.20    -51.42322   0.0219  384.  374.   -51.40318
block <Epot> / <T> :     -51.42509  374.     drift: -0.36D-06   Tbath : 310.
 159000  636.00    -51.42322   0.0219  384.  374.   -51.40320
[...]
2448800 9795.20    -51.42498   0.0219  374.  374.   -51.40320
2449000 9796.00    -51.42498   0.0219  374.  374.   -51.40320
2449200 9796.80    -51.42498   0.0219  374.  374.   -51.40320
2449400 9797.60    -51.42498   0.0219  374.  374.   -51.40320
block <Epot> / <T> :     -51.42511  374.     drift:  0.75D-09   Tbath : 310.
2449600 9798.40    -51.42498   0.0219  374.  374.   -51.40320
2449800 9799.20    -51.42498   0.0219  374.  374.   -51.40320
2450000 9800.00    -51.42498   0.0219  374.  374.   -51.40321
2450200 9800.80    -51.42498   0.0219  374.  374.   -51.40321
2450400 9801.60    -51.42498   0.0219  374.  374.   -51.40321
2450600 9802.40    -51.42498   0.0219  374.  374.   -51.40321
block <Epot> / <T> :     -51.42511  374.     drift: -0.30D-10   Tbath : 310.
2450800 9803.20    -51.42498   0.0219  374.  374.   -51.40321
2451000 9804.00    -51.42498   0.0219  374.  374.   -51.40321
2451200 9804.80    -51.42498   0.0219  374.  374.   -51.40320
2451400 9805.60    -51.42498   0.0219  374.  374.   -51.40320
2451600 9806.40    -51.42498   0.0219  374.  374.   -51.40320
2451800 9807.20    -51.42498   0.0219  374.  374.   -51.40320
block <Epot> / <T> :     -51.42511  374.     drift: -0.11D-08   Tbath : 310.
2452000 9808.00    -51.42498   0.0219  374.  374.   -51.40320
2452200 9808.80    -51.42498   0.0219  374.  374.   -51.40320
2452400 9809.60    -51.42498   0.0219  374.  374.   -51.40321
2452600 9810.40    -51.42498   0.0219  374.  374.   -51.40321
2452800 9811.20    -51.42498   0.0219  374.  374.   -51.40321
2453000 9812.00    -51.42498   0.0219  374.  374.   -51.40321
2453200 9812.80    -51.42498   0.0219  374.  374.   -51.40321
block <Epot> / <T> :     -51.42511  374.     drift: -0.11D-08   Tbath : 310.
2453400 9813.60    -51.42498   0.0219  374.  374.   -51.40321
2453600 9814.40    -51.42498   0.0219  374.  374.   -51.40320
2453800 9815.20    -51.42498   0.0219  374.  374.   -51.40320
2454000 9816.00    -51.42498   0.0219  374.  374.   -51.40320
2454200 9816.80    -51.42498   0.0219  374.  374.   -51.40320
2454400 9817.60    -51.42498   0.0219  374.  374.   -51.40320
block <Epot> / <T> :     -51.42511  374.     drift: -0.16D-08   Tbath : 310.
2454600 9818.40    -51.42498   0.0219  374.  374.   -51.40320
2454800 9819.20    -51.42498   0.0219  374.  374.   -51.40320
2455000 9820.00    -51.42498   0.0219  374.  374.   -51.40321
2455200 9820.80    -51.42498   0.0219  374.  374.   -51.40321
2455400 9821.60    -51.42498   0.0219  374.  374.   -51.40321
2455600 9822.40    -51.42498   0.0219  374.  374.   -51.40321
block <Epot> / <T> :     -51.42511  374.     drift: -0.13D-09   Tbath : 310.
2455800 9823.20    -51.42498   0.0219  374.  374.   -51.40321
2456000 9824.00    -51.42498   0.0219  374.  374.   -51.40321
2456200 9824.80    -51.42498   0.0219  374.  374.   -51.40320
2456400 9825.60    -51.42498   0.0219  374.  374.   -51.40320
2456600 9826.40    -51.42498   0.0219  374.  374.   -51.40320
2456800 9827.20    -51.42498   0.0219  374.  374.   -51.40320
block <Epot> / <T> :     -51.42511  374.     drift:  0.77D-11   Tbath : 310.
2457000 9828.00    -51.42498   0.0219  374.  374.   -51.40320
2457200 9828.80    -51.42498   0.0219  374.  374.   -51.40320
2457400 9829.60    -51.42498   0.0219  374.  374.   -51.40321
2457600 9830.40    -51.42498   0.0219  374.  374.   -51.40321
2457800 9831.20    -51.42498   0.0219  374.  374.   -51.40321
2458000 9832.00    -51.42498   0.0219  374.  374.   -51.40321
2458200 9832.80    -51.42498   0.0219  374.  374.   -51.40321
block <Epot> / <T> :     -51.42511  374.     drift:  0.77D-09   Tbath : 310.
2458400 9833.60    -51.42498   0.0219  374.  374.   -51.40321
2458600 9834.40    -51.42498   0.0219  374.  374.   -51.40320
2458800 9835.20    -51.42498   0.0219  374.  374.   -51.40320
2459000 9836.00    -51.42498   0.0219  374.  374.   -51.40320
2459200 9836.80    -51.42498   0.0219  374.  374.   -51.40320
2459400 9837.60    -51.42498   0.0219  374.  374.   -51.40320
block <Epot> / <T> :     -51.42511  374.     drift:  0.50D-09   Tbath : 310.
2459600 9838.40    -51.42498   0.0219  374.  374.   -51.40320
2459800 9839.20    -51.42498   0.0219  374.  374.   -51.40320
2460000 9840.00    -51.42498   0.0219  374.  374.   -51.40321
2460200 9840.80    -51.42498   0.0219  374.  374.   -51.40321
2460400 9841.60    -51.42498   0.0219  374.  374.   -51.40321
2460600 9842.40    -51.42498   0.0219  374.  374.   -51.40321
block <Epot> / <T> :     -51.42511  374.     drift:  0.26D-10   Tbath : 310.
2460800 9843.20    -51.42498   0.0219  374.  374.   -51.40321
2461000 9844.00    -51.42498   0.0219  374.  374.   -51.40321
2461200 9844.80    -51.42498   0.0219  374.  374.   -51.40320
2461400 9845.60    -51.42498   0.0219  374.  374.   -51.40320
2461600 9846.40    -51.42498   0.0219  374.  374.   -51.40320
2461800 9847.20    -51.42498   0.0219  374.  374.   -51.40320
block <Epot> / <T> :     -51.42511  374.     drift: -0.54D-09   Tbath : 310.
2462000 9848.00    -51.42498   0.0219  374.  374.   -51.40320
2462200 9848.80    -51.42498   0.0219  374.  374.   -51.40320
2462400 9849.60    -51.42498   0.0219  374.  374.   -51.40321
2462600 9850.40    -51.42498   0.0219  374.  374.   -51.40321
2462800 9851.20    -51.42498   0.0219  374.  374.   -51.40321
2463000 9852.00    -51.42498   0.0219  374.  374.   -51.40321
2463200 9852.80    -51.42498   0.0219  374.  374.   -51.40321
block <Epot> / <T> :     -51.42511  374.     drift: -0.39D-09   Tbath : 310.
2463400 9853.60    -51.42498   0.0219  374.  374.   -51.40321
2463600 9854.40    -51.42498   0.0219  374.  374.   -51.40320
2463800 9855.20    -51.42498   0.0219  374.  374.   -51.40320
2464000 9856.00    -51.42498   0.0219  374.  374.   -51.40320
2464200 9856.80    -51.42498   0.0219  374.  374.   -51.40320
2464400 9857.60    -51.42498   0.0219  374.  374.   -51.40320
block <Epot> / <T> :     -51.42511  374.     drift:  0.10D-08   Tbath : 310.
2464600 9858.40    -51.42498   0.0219  374.  374.   -51.40320
2464800 9859.20    -51.42498   0.0219  374.  374.   -51.40320
2465000 9860.00    -51.42498   0.0219  374.  374.   -51.40321
2465200 9860.80    -51.42498   0.0219  374.  374.   -51.40321
2465400 9861.60    -51.42498   0.0219  374.  374.   -51.40321
2465600 9862.40    -51.42498   0.0219  374.  374.   -51.40321
block <Epot> / <T> :     -51.42511  374.     drift:  0.12D-08   Tbath : 310.
2465800 9863.20    -51.42498   0.0219  374.  374.   -51.40321
2466000 9864.00    -51.42498   0.0219  374.  374.   -51.40321
2466200 9864.80    -51.42498   0.0219  374.  374.   -51.40320
2466400 9865.60    -51.42498   0.0219  374.  374.   -51.40320
2466600 9866.40    -51.42498   0.0219  374.  374.   -51.40320
2466800 9867.20    -51.42498   0.0219  374.  374.   -51.40320
block <Epot> / <T> :     -51.42511  374.     drift:  0.82D-09   Tbath : 310.
2467000 9868.00    -51.42498   0.0219  374.  374.   -51.40320
2467200 9868.80    -51.42498   0.0219  374.  374.   -51.40320
2467400 9869.60    -51.42498   0.0219  374.  374.   -51.40321
2467600 9870.40    -51.42498   0.0219  374.  374.   -51.40321
2467800 9871.20    -51.42498   0.0219  374.  374.   -51.40321
2468000 9872.00    -51.42498   0.0219  374.  374.   -51.40321
2468200 9872.80    -51.42498   0.0219  374.  374.   -51.40321
block <Epot> / <T> :     -51.42511  374.     drift: -0.34D-09   Tbath : 310.
2468400 9873.60    -51.42498   0.0219  374.  374.   -51.40321
2468600 9874.40    -51.42498   0.0219  374.  374.   -51.40320
2468800 9875.20    -51.42498   0.0219  374.  374.   -51.40320
2469000 9876.00    -51.42498   0.0219  374.  374.   -51.40320
2469200 9876.80    -51.42498   0.0219  374.  374.   -51.40320
2469400 9877.60    -51.42498   0.0219  374.  374.   -51.40320
block <Epot> / <T> :     -51.42511  374.     drift: -0.56D-09   Tbath : 310.
2469600 9878.40    -51.42498   0.0219  374.  374.   -51.40320
2469800 9879.20    -51.42498   0.0219  374.  374.   -51.40320
2470000 9880.00    -51.42498   0.0219  374.  374.   -51.40321
2470200 9880.80    -51.42498   0.0219  374.  374.   -51.40321
2470400 9881.60    -51.42498   0.0219  374.  374.   -51.40321
2470600 9882.40    -51.42498   0.0219  374.  374.   -51.40321
block <Epot> / <T> :     -51.42511  374.     drift:  0.28D-09   Tbath : 310.
2470800 9883.20    -51.42498   0.0219  374.  374.   -51.40321
2471000 9884.00    -51.42498   0.0219  374.  374.   -51.40321
2471200 9884.80    -51.42498   0.0219  374.  374.   -51.40320
2471400 9885.60    -51.42498   0.0219  374.  374.   -51.40320
2471600 9886.40    -51.42498   0.0219  374.  374.   -51.40320
2471800 9887.20    -51.42498   0.0219  374.  374.   -51.40320
block <Epot> / <T> :     -51.42511  374.     drift: -0.30D-09   Tbath : 310.
2472000 9888.00    -51.42498   0.0219  374.  374.   -51.40320
2472200 9888.80    -51.42498   0.0219  374.  374.   -51.40320
2472400 9889.60    -51.42498   0.0219  374.  374.   -51.40320
2472600 9890.40    -51.42498   0.0219  374.  374.   -51.40321
2472800 9891.20    -51.42498   0.0219  374.  374.   -51.40321
2473000 9892.00    -51.42498   0.0219  374.  374.   -51.40321
2473200 9892.80    -51.42498   0.0219  374.  374.   -51.40321
block <Epot> / <T> :     -51.42511  374.     drift: -0.56D-09   Tbath : 310.
2473400 9893.60    -51.42498   0.0219  374.  374.   -51.40321
2473600 9894.40    -51.42498   0.0219  374.  374.   -51.40321
2473800 9895.20    -51.42498   0.0219  374.  374.   -51.40320
2474000 9896.00    -51.42498   0.0219  374.  374.   -51.40320
2474200 9896.80    -51.42498   0.0219  374.  374.   -51.40320
2474400 9897.60    -51.42498   0.0219  374.  374.   -51.40320
block <Epot> / <T> :     -51.42511  374.     drift: -0.14D-08   Tbath : 310.
2474600 9898.40    -51.42498   0.0219  374.  374.   -51.40320
2474800 9899.20    -51.42498   0.0219  374.  374.   -51.40320
2475000 9900.00    -51.42499   0.0219  374.  374.   -51.40321
2475200 9900.80    -51.42499   0.0219  374.  374.   -51.40321
2475400 9901.60    -51.42499   0.0219  374.  374.   -51.40321
2475600 9902.40    -51.42499   0.0219  374.  374.   -51.40321
block <Epot> / <T> :     -51.42511  374.     drift: -0.77D-09   Tbath : 310.
2475800 9903.20    -51.42499   0.0219  374.  374.   -51.40321
2476000 9904.00    -51.42499   0.0219  374.  374.   -51.40321
2476200 9904.80    -51.42499   0.0219  374.  374.   -51.40321
2476400 9905.60    -51.42499   0.0219  374.  374.   -51.40320
2476600 9906.40    -51.42499   0.0219  374.  374.   -51.40320
2476800 9907.20    -51.42499   0.0219  374.  374.   -51.40320
block <Epot> / <T> :     -51.42511  374.     drift: -0.77D-09   Tbath : 310.
2477000 9908.00    -51.42499   0.0219  374.  374.   -51.40320
2477200 9908.80    -51.42499   0.0219  374.  374.   -51.40320
2477400 9909.60    -51.42499   0.0219  374.  374.   -51.40320
2477600 9910.40    -51.42499   0.0219  374.  374.   -51.40321
2477800 9911.20    -51.42499   0.0219  374.  374.   -51.40321
2478000 9912.00    -51.42499   0.0219  374.  374.   -51.40321
2478200 9912.80    -51.42499   0.0219  374.  374.   -51.40321
block <Epot> / <T> :     -51.42511  374.     drift:  0.29D-09   Tbath : 310.
2478400 9913.60    -51.42499   0.0219  374.  374.   -51.40321
2478600 9914.40    -51.42499   0.0219  374.  374.   -51.40321
2478800 9915.20    -51.42499   0.0219  374.  374.   -51.40320
2479000 9916.00    -51.42499   0.0219  374.  374.   -51.40320
2479200 9916.80    -51.42499   0.0219  374.  374.   -51.40320
2479400 9917.60    -51.42499   0.0219  374.  374.   -51.40320
block <Epot> / <T> :     -51.42511  374.     drift:  0.22D-09   Tbath : 310.
2479600 9918.40    -51.42499   0.0219  374.  374.   -51.40320
2479800 9919.20    -51.42499   0.0219  374.  374.   -51.40320
2480000 9920.00    -51.42499   0.0219  374.  374.   -51.40321
2480200 9920.80    -51.42499   0.0219  374.  374.   -51.40321
2480400 9921.60    -51.42499   0.0219  374.  374.   -51.40321
2480600 9922.40    -51.42499   0.0219  374.  374.   -51.40321
block <Epot> / <T> :     -51.42511  374.     drift:  0.12D-08   Tbath : 310.
2480800 9923.20    -51.42499   0.0219  374.  374.   -51.40321
2481000 9924.00    -51.42499   0.0219  374.  374.   -51.40321
2481200 9924.80    -51.42499   0.0219  374.  374.   -51.40320
2481400 9925.60    -51.42499   0.0219  374.  374.   -51.40320
2481600 9926.40    -51.42499   0.0219  374.  374.   -51.40320
2481800 9927.20    -51.42499   0.0219  374.  374.   -51.40320
block <Epot> / <T> :     -51.42511  374.     drift:  0.16D-08   Tbath : 310.
2482000 9928.00    -51.42499   0.0219  374.  374.   -51.40320
2482200 9928.80    -51.42499   0.0219  374.  374.   -51.40320
2482400 9929.60    -51.42499   0.0219  374.  374.   -51.40320
2482600 9930.40    -51.42499   0.0219  374.  374.   -51.40321
2482800 9931.20    -51.42499   0.0219  374.  374.   -51.40321
2483000 9932.00    -51.42499   0.0219  374.  374.   -51.40321
2483200 9932.80    -51.42499   0.0219  374.  374.   -51.40321
block <Epot> / <T> :     -51.42511  374.     drift:  0.12D-08   Tbath : 310.
2483400 9933.60    -51.42499   0.0219  374.  374.   -51.40321
2483600 9934.40    -51.42499   0.0219  374.  374.   -51.40321
2483800 9935.20    -51.42499   0.0219  374.  374.   -51.40320
2484000 9936.00    -51.42499   0.0219  374.  374.   -51.40320
2484200 9936.80    -51.42499   0.0219  374.  374.   -51.40320
2484400 9937.60    -51.42499   0.0219  374.  374.   -51.40320
block <Epot> / <T> :     -51.42511  374.     drift: -0.12D-08   Tbath : 310.
2484600 9938.40    -51.42499   0.0219  374.  374.   -51.40320
2484800 9939.20    -51.42499   0.0219  374.  374.   -51.40320
2485000 9940.00    -51.42499   0.0219  374.  374.   -51.40321
2485200 9940.80    -51.42499   0.0219  374.  374.   -51.40321
2485400 9941.60    -51.42499   0.0219  374.  374.   -51.40321
2485600 9942.40    -51.42499   0.0219  374.  374.   -51.40321
block <Epot> / <T> :     -51.42511  374.     drift: -0.13D-08   Tbath : 310.
2485800 9943.20    -51.42499   0.0219  374.  374.   -51.40321
2486000 9944.00    -51.42499   0.0219  374.  374.   -51.40321
2486200 9944.80    -51.42499   0.0219  374.  374.   -51.40320
2486400 9945.60    -51.42499   0.0219  374.  374.   -51.40320
2486600 9946.40    -51.42499   0.0219  374.  374.   -51.40320
2486800 9947.20    -51.42499   0.0219  374.  374.   -51.40320
block <Epot> / <T> :     -51.42511  374.     drift: -0.32D-09   Tbath : 310.
2487000 9948.00    -51.42499   0.0219  374.  374.   -51.40320
2487200 9948.80    -51.42499   0.0219  374.  374.   -51.40320
2487400 9949.60    -51.42499   0.0219  374.  374.   -51.40320
2487600 9950.40    -51.42499   0.0219  374.  374.   -51.40321
2487800 9951.20    -51.42499   0.0219  374.  374.   -51.40321
2488000 9952.00    -51.42499   0.0219  374.  374.   -51.40321
2488200 9952.80    -51.42499   0.0219  374.  374.   -51.40321
block <Epot> / <T> :     -51.42511  374.     drift:  0.58D-09   Tbath : 310.
2488400 9953.60    -51.42499   0.0219  374.  374.   -51.40321
2488600 9954.40    -51.42499   0.0219  374.  374.   -51.40321
2488800 9955.20    -51.42499   0.0219  374.  374.   -51.40320
2489000 9956.00    -51.42499   0.0219  374.  374.   -51.40320
2489200 9956.80    -51.42499   0.0219  374.  374.   -51.40320
2489400 9957.60    -51.42499   0.0219  374.  374.   -51.40320
block <Epot> / <T> :     -51.42511  374.     drift: -0.50D-09   Tbath : 310.
2489600 9958.40    -51.42499   0.0219  374.  374.   -51.40320
2489800 9959.20    -51.42499   0.0219  374.  374.   -51.40320
2490000 9960.00    -51.42499   0.0219  374.  374.   -51.40321
2490200 9960.80    -51.42499   0.0219  374.  374.   -51.40321
2490400 9961.60    -51.42499   0.0219  374.  374.   -51.40321
2490600 9962.40    -51.42499   0.0219  374.  374.   -51.40321
block <Epot> / <T> :     -51.42511  374.     drift:  0.49D-10   Tbath : 310.
2490800 9963.20    -51.42499   0.0219  374.  374.   -51.40321
2491000 9964.00    -51.42499   0.0219  374.  374.   -51.40321
2491200 9964.80    -51.42499   0.0219  374.  374.   -51.40320
2491400 9965.60    -51.42499   0.0219  374.  374.   -51.40320
2491600 9966.40    -51.42499   0.0219  374.  374.   -51.40320
2491800 9967.20    -51.42499   0.0219  374.  374.   -51.40320
block <Epot> / <T> :     -51.42511  374.     drift: -0.37D-09   Tbath : 310.
2492000 9968.00    -51.42499   0.0219  374.  374.   -51.40320
2492200 9968.80    -51.42499   0.0219  374.  374.   -51.40320
2492400 9969.60    -51.42499   0.0219  374.  374.   -51.40320
2492600 9970.40    -51.42499   0.0219  374.  374.   -51.40321
2492800 9971.20    -51.42499   0.0219  374.  374.   -51.40321
2493000 9972.00    -51.42499   0.0219  374.  374.   -51.40321
2493200 9972.80    -51.42499   0.0219  374.  374.   -51.40321
block <Epot> / <T> :     -51.42511  374.     drift: -0.15D-08   Tbath : 310.
2493400 9973.60    -51.42499   0.0219  374.  374.   -51.40321
2493600 9974.40    -51.42499   0.0219  374.  374.   -51.40321
2493800 9975.20    -51.42499   0.0219  374.  374.   -51.40320
2494000 9976.00    -51.42499   0.0219  374.  374.   -51.40320
2494200 9976.80    -51.42499   0.0219  374.  374.   -51.40320
2494400 9977.60    -51.42499   0.0219  374.  374.   -51.40320
block <Epot> / <T> :     -51.42511  374.     drift: -0.20D-09   Tbath : 310.
2494600 9978.40    -51.42499   0.0219  374.  374.   -51.40320
2494800 9979.20    -51.42499   0.0219  374.  374.   -51.40320
2495000 9980.00    -51.42499   0.0219  374.  374.   -51.40320
2495200 9980.80    -51.42499   0.0219  374.  374.   -51.40321
2495400 9981.60    -51.42499   0.0219  374.  374.   -51.40321
2495600 9982.40    -51.42499   0.0219  374.  374.   -51.40321
block <Epot> / <T> :     -51.42511  374.     drift:  0.20D-08   Tbath : 310.
2495800 9983.20    -51.42499   0.0219  374.  374.   -51.40321
2496000 9984.00    -51.42499   0.0219  374.  374.   -51.40321
2496200 9984.80    -51.42499   0.0219  374.  374.   -51.40321
2496400 9985.60    -51.42499   0.0219  374.  374.   -51.40320
2496600 9986.40    -51.42499   0.0219  374.  374.   -51.40320
2496800 9987.20    -51.42499   0.0219  374.  374.   -51.40320
block <Epot> / <T> :     -51.42511  374.     drift:  0.19D-08   Tbath : 310.
2497000 9988.00    -51.42499   0.0219  374.  374.   -51.40320
2497200 9988.80    -51.42499   0.0219  374.  374.   -51.40320
2497400 9989.60    -51.42499   0.0219  374.  374.   -51.40320
2497600 9990.40    -51.42499   0.0219  374.  374.   -51.40321
2497800 9991.20    -51.42499   0.0219  374.  374.   -51.40321
2498000 9992.00    -51.42499   0.0219  374.  374.   -51.40321
2498200 9992.80    -51.42499   0.0219  374.  374.   -51.40321
block <Epot> / <T> :     -51.42511  374.     drift: -0.20D-09   Tbath : 310.
2498400 9993.60    -51.42499   0.0219  374.  374.   -51.40321
2498600 9994.40    -51.42499   0.0219  374.  374.   -51.40321
2498800 9995.20    -51.42499   0.0219  374.  374.   -51.40320
2499000 9996.00    -51.42499   0.0219  374.  374.   -51.40320
2499200 9996.80    -51.42499   0.0219  374.  374.   -51.40320
2499400 9997.60    -51.42499   0.0219  374.  374.   -51.40320
block <Epot> / <T> :     -51.42511  374.     drift: -0.53D-09   Tbath : 310.
2499600 9998.40    -51.42499   0.0219  374.  374.   -51.40320
2499800 9999.20    -51.42499   0.0219  374.  374.   -51.40320
 average properties 
 Epot               :  -51.4249862210583     
 Epot (accurate SCC):  -51.4250080706134     
 Ekin               :  2.193912140830095E-002
 Etot               :  -51.4030470996500     
 T                  :   374.477466853287     
 thermostating problem
 normal exit of md()

------------------------------------------------------------------------
 * finished run on 2026/01/20 at 05:32:03.132     
------------------------------------------------------------------------
 total:
 * wall-time:     0 d,  6 h, 46 min, 21.989 sec
 *  cpu-time:    31 d, 12 h, 22 min, 36.782 sec
 * ratio c/w:   111.679 speedup
 SCF:
 * wall-time:     0 d,  0 h,  0 min,  0.128 sec
 *  cpu-time:     0 d,  0 h,  0 min, 10.287 sec
 * ratio c/w:    80.529 speedup
 MD:
 * wall-time:     0 d,  6 h, 46 min, 21.757 sec
 *  cpu-time:    31 d, 12 h, 22 min, 21.926 sec
 * ratio c/w:   111.679 speedup

normal termination of xtb
