      -----------------------------------------------------------      
     |                   =====================                   |     
     |                           x T B                           |     
     |                   =====================                   |     
     |                         S. Grimme                         |     
     |          Mulliken Center for Theoretical Chemistry        |     
     |                    University of Bonn                     |     
      -----------------------------------------------------------      

   * xtb version 6.7.1 (edcfbbe) compiled by 'albert@albert-system' on 2024-07-22

   xtb is free software: you can redistribute it and/or modify it under
   the terms of the GNU Lesser General Public License as published by
   the Free Software Foundation, either version 3 of the License, or
   (at your option) any later version.
   
   xtb is distributed in the hope that it will be useful,
   but WITHOUT ANY WARRANTY; without even the implied warranty of
   MERCHANTABILITY or FITNESS FOR A PARTICULAR PURPOSE.  See the
   GNU Lesser General Public License for more details.
   
   Cite this work as:
   * C. Bannwarth, E. Caldeweyher, S. Ehlert, A. Hansen, P. Pracht,
     J. Seibert, S. Spicher, S. Grimme, WIREs Comput. Mol. Sci., 2020, 11,
     e01493. DOI: 10.1002/wcms.1493
   
   for GFN2-xTB:
   * C. Bannwarth, S. Ehlert and S. Grimme., J. Chem. Theory Comput., 2019,
     15, 1652-1671. DOI: 10.1021/acs.jctc.8b01176
   for GFN1-xTB:
   * S. Grimme, C. Bannwarth, P. Shushkov, J. Chem. Theory Comput., 2017,
     13, 1989-2009. DOI: 10.1021/acs.jctc.7b00118
   for GFN0-xTB:
   * P. Pracht, E. Caldeweyher, S. Ehlert, S. Grimme, ChemRxiv, 2019, preprint.
     DOI: 10.26434/chemrxiv.8326202.v1
   for GFN-FF:
   * S. Spicher and S. Grimme, Angew. Chem. Int. Ed., 2020, 59, 15665-15673.
     DOI: 10.1002/anie.202004239
   
   for ALPB and GBSA implicit solvation:
   * S. Ehlert, M. Stahn, S. Spicher, S. Grimme, J. Chem. Theory Comput.,
     2021, 17, 4250-4261. DOI: 10.1021/acs.jctc.1c00471
   
   for ddCOSMO and CPCM-X implicit solvation:
   * M. Stahn, S. Ehlert, S. Grimme, J. Phys. Chem. A,
     2023, XX, XXXX-XXXX. DOI: 10.1021/acs.jpca.3c04382
   
   for DFT-D4:
   * E. Caldeweyher, C. Bannwarth and S. Grimme, J. Chem. Phys., 2017,
     147, 034112. DOI: 10.1063/1.4993215
   * E. Caldeweyher, S. Ehlert, A. Hansen, H. Neugebauer, S. Spicher,
     C. Bannwarth and S. Grimme, J. Chem. Phys., 2019, 150, 154122.
     DOI: 10.1063/1.5090222
   * E. Caldeweyher, J.-M. Mewes, S. Ehlert and S. Grimme, Phys. Chem. Chem. Phys.
     2020, 22, 8499-8512. DOI: 10.1039/D0CP00502A
   
   for sTDA-xTB:
   * S. Grimme and C. Bannwarth, J. Chem. Phys., 2016, 145, 054103.
     DOI: 10.1063/1.4959605
   
   in the mass-spec context:
   * V. Asgeirsson, C. Bauer and S. Grimme, Chem. Sci., 2017, 8, 4879.
     DOI: 10.1039/c7sc00601b
   * J. Koopman and S. Grimme, ACS Omega 2019, 4, 12, 15120-15133.
     DOI: 10.1021/acsomega.9b02011
   
   for metadynamics refer to:
   * S. Grimme, J. Chem. Theory Comput., 2019, 155, 2847-2862
     DOI: 10.1021/acs.jctc.9b00143
   
   for SPH calculations refer to:
   * S. Spicher and S. Grimme, J. Chem. Theory Comput., 2021, 17, 1701-1714
     DOI: 10.1021/acs.jctc.0c01306
   
   for ONIOM refer to:
   * C. Plett, A. Katbashev, S. Ehlert, S. Grimme, M. Bursch,
     Phys. Chem. Chem. Phys., 2023, 25, 17860-17868. DOI: 10.1039/D3CP02178E
   
   for DIPRO refer to:
   * J. Kohn, N. Gildemeister, S. Grimme, D. Fazzi, A. Hansen,
     J. Chem. Phys., 2023, just accepted.
   
   for PTB refer to:
   * S. Grimme, M. Mueller, A. Hansen, J. Chem. Phys., 2023, 158, 124111.
     DOI: 10.1063/5.0137838
   
   with help from (in alphabetical order)
   P. Atkinson, C. Bannwarth, F. Bohle, G. Brandenburg, E. Caldeweyher
   M. Checinski, S. Dohm, S. Ehlert, S. Ehrlich, I. Gerasimov, C. Hölzer
   A. Katbashev, J. Kohn, J. Koopman, C. Lavigne, S. Lehtola, F. März, M. Müller,
   F. Musil, H. Neugebauer, J. Pisarek, C. Plett, P. Pracht, F. Pultar,
   J. Seibert, P. Shushkov, S. Spicher, M. Stahn, M. Steiner, T. Strunk,
   J. Stückrath, T. Rose, and J. Unsleber
   
 * started run on 2026/01/18 at 17:04:03.416     
   ID    Z sym.   atoms
    1    6 C      1, 2, 5-11
    2    8 O      3, 4, 12, 13

           -------------------------------------------------
          |                Calculation Setup                |
           -------------------------------------------------

          program call               : xtb gochem.xyz --input gochem.inp -c 0 -u 0 -P 8 --gfn 2 --alpb h2o --md
          coordinate file            : gochem.xyz
          omp threads                :                     8


           -------------------------------------------------
          |                 G F N 2 - x T B                 |
           -------------------------------------------------

        Reference                      10.1021/acs.jctc.8b01176
      * Hamiltonian:
        H0-scaling (s, p, d)           1.850000    2.230000    2.230000
        zeta-weighting                 0.500000
      * Dispersion:
        s8                             2.700000
        a1                             0.520000
        a2                             5.000000
        s9                             5.000000
      * Repulsion:
        kExp                           1.500000    1.000000
        rExp                           1.000000
      * Coulomb:
        alpha                          2.000000
        third order                    shell-resolved
        anisotropic                    true
        a3                             3.000000
        a5                             4.000000
        cn-shift                       1.200000
        cn-exp                         4.000000
        max-rad                        5.000000

      * Solvation model:               ALPB
        Solvent                        h2o
        Parameter file                 internal GFN2-xTB/ALPB
        Dielectric constant                8.0200E+01
        Reference state                gsolv [1 M gas/solution]
        Free energy shift                  1.0808E-03 Eh       6.7819E-01 kcal/mol
        Temperature                        3.1000E+02 K
        Density                            1.0000E+00 kg/L
        Solvent mass                       1.8000E+01 g/mol
        Interaction kernel             P16
        Born radius scaling (c1)           1.4744E+00
        Born radii integrator          GBOBC
        Born offset                        0.0000E+00 a0       0.0000E+00 AA
        H-bond correction              true
        Ion screening                  false
        Surface tension                    1.0000E-05 Eh       1.5569E+01 dyn/cm
        Grid points                               230 per atom

          ...................................................
          :                      SETUP                      :
          :.................................................:
          :  # basis functions                  52          :
          :  # atomic orbitals                  52          :
          :  # shells                           26          :
          :  # electrons                        60          :
          :  max. iterations                   250          :
          :  Hamiltonian                  GFN2-xTB          :
          :  restarted?                      false          :
          :  GBSA solvation                   true          :
          :  PC potential                    false          :
          :  electronic temp.          300.0000000     K    :
          :  accuracy                    1.0000000          :
          :  -> integral cutoff          0.2500000E+02      :
          :  -> integral neglect         0.1000000E-07      :
          :  -> SCF convergence          0.1000000E-05 Eh   :
          :  -> wf. convergence          0.1000000E-03 e    :
          :  Broyden damping             0.4000000          :
          :  net charge                          0          :
          :  unpaired electrons                  0          :
          ...................................................

 iter      E             dE          RMSdq      gap      omega  full diag
   1    -34.8695792 -0.348696E+02  0.103E+01    0.41       0.0  T
   2    -33.0112391  0.185834E+01  0.122E+01    0.35       1.0  T
   3    -33.6187502 -0.607511E+00  0.801E+00    0.26       1.0  T
   4    -32.8035423  0.815208E+00  0.973E+00    0.10       1.0  T
   5    -34.8882718 -0.208473E+01  0.553E+00    0.52       1.0  T
   6    -35.1947672 -0.306495E+00  0.323E+00    0.02       1.0  T
   7    -35.1332653  0.615019E-01  0.318E+00    0.08       1.0  T
   8    -35.0167023  0.116563E+00  0.481E+00    0.16       1.0  T
   9    -35.0201913 -0.348896E-02  0.478E+00    0.16       1.0  T
  10    -35.0434975 -0.233062E-01  0.460E+00    0.16       1.0  T
  11    -35.1614835 -0.117986E+00  0.256E+00    0.07       1.0  T
  12    -35.2178963 -0.564128E-01  0.988E-01    0.03       1.0  T
  13    -35.2038965  0.139998E-01  0.146E+00    0.04       1.0  T
  14    -35.1595482  0.443483E-01  0.223E+00    0.07       1.0  T
  15    -35.2180793 -0.585310E-01  0.978E-01    0.03       1.0  T
  16    -35.2339091 -0.158298E-01  0.209E-01    0.01       1.0  T
  17    -35.2312255  0.268356E-02  0.449E-01    0.02       1.0  T
  18    -35.2331423 -0.191681E-02  0.293E-01    0.02       1.0  T
  19    -35.2341087 -0.966396E-03  0.161E-01    0.02       1.0  T
  20    -35.2344869 -0.378216E-03  0.488E-02    0.01       1.0  T
  21    -35.2345143 -0.273542E-04  0.248E-02    0.01       1.1  T
  22    -35.2345239 -0.963782E-05  0.490E-03    0.01       5.7  T
  23    -35.2345243 -0.341905E-06  0.192E-03    0.01      14.5  T
  24    -35.2345243 -0.527393E-07  0.121E-03    0.01      22.9  T
  25    -35.2345243 -0.102197E-07  0.680E-04    0.01      40.8  T
  26    -35.2345243 -0.324387E-08  0.281E-04    0.01      98.7  T

   *** convergence criteria satisfied after 26 iterations ***

         #    Occupation            Energy/Eh            Energy/eV
      -------------------------------------------------------------
         1        2.0000           -0.8127222             -22.1153
       ...           ...                  ...                  ...
        24        2.0000           -0.5076986             -13.8152
        25        2.0000           -0.5035224             -13.7015
        26        2.0000           -0.4882231             -13.2852
        27        2.0000           -0.4876166             -13.2687
        28        2.0000           -0.4748799             -12.9221
        29        1.9996           -0.4708135             -12.8115
        30        1.1394           -0.4630968             -12.6015 (HOMO)
        31        0.8609           -0.4625640             -12.5870 (LUMO)
        32        0.0001           -0.4537740             -12.3478
        33                         -0.4231386             -11.5142
        34                         -0.4012777             -10.9193
        35                         -0.3509803              -9.5507
       ...                                ...                  ...
        52                          0.5910872              16.0843
      -------------------------------------------------------------
                  HL-Gap            0.0005328 Eh            0.0145 eV
             Fermi-level           -0.4628301 Eh          -12.5942 eV

 SCC (total)                   0 d,  0 h,  0 min,  0.034 sec
 SCC setup                      ...        0 min,  0.002 sec (  5.648%)
 Dispersion                     ...        0 min,  0.000 sec (  0.501%)
 classical contributions        ...        0 min,  0.000 sec (  0.169%)
 integral evaluation            ...        0 min,  0.002 sec (  6.122%)
 iterations                     ...        0 min,  0.026 sec ( 75.076%)
 molecular gradient             ...        0 min,  0.004 sec ( 11.717%)
 printout                       ...        0 min,  0.000 sec (  0.658%)

         :::::::::::::::::::::::::::::::::::::::::::::::::::::
         ::                     SUMMARY                     ::
         :::::::::::::::::::::::::::::::::::::::::::::::::::::
         :: total energy             -34.912802780005 Eh    ::
         :: total w/o Gsasa/hb       -34.916040626469 Eh    ::
         :: gradient norm              0.232319436538 Eh/a0 ::
         :: HOMO-LUMO gap              0.014497657015 eV    ::
         ::.................................................::
         :: SCC energy               -35.234474463913 Eh    ::
         :: -> isotropic ES            0.113554026026 Eh    ::
         :: -> anisotropic ES          0.000460183576 Eh    ::
         :: -> anisotropic XC          0.009100422351 Eh    ::
         :: -> dispersion             -0.014522348326 Eh    ::
         :: -> Gsolv                  -0.017148337754 Eh    ::
         ::    -> Gelec               -0.020386184217 Eh    ::
         ::    -> Gsasa                0.003882354956 Eh    ::
         ::    -> Ghb                 -0.001725268191 Eh    ::
         ::    -> Gshift               0.001080759698 Eh    ::
         :: repulsion energy           0.321671683909 Eh    ::
         :: add. restraining           0.000000000000 Eh    ::
         :: total charge               0.000000000018 e     ::
         :::::::::::::::::::::::::::::::::::::::::::::::::::::

           -------------------------------------------------
          |                Property Printout                |
           -------------------------------------------------

    * Orbital Energies and Occupations

         #    Occupation            Energy/Eh            Energy/eV
      -------------------------------------------------------------
         1        2.0000           -0.8127222             -22.1153
       ...           ...                  ...                  ...
        18        2.0000           -0.6009207             -16.3519
        19        2.0000           -0.5718385             -15.5605
        20        2.0000           -0.5705744             -15.5261
        21        2.0000           -0.5542095             -15.0808
        22        2.0000           -0.5361737             -14.5900
        23        2.0000           -0.5192647             -14.1299
        24        2.0000           -0.5076986             -13.8152
        25        2.0000           -0.5035224             -13.7015
        26        2.0000           -0.4882231             -13.2852
        27        2.0000           -0.4876166             -13.2687
        28        2.0000           -0.4748799             -12.9221
        29        1.9996           -0.4708135             -12.8115
        30        1.1394           -0.4630968             -12.6015 (HOMO)
        31        0.8609           -0.4625640             -12.5870 (LUMO)
        32        0.0001           -0.4537740             -12.3478
        33                         -0.4231386             -11.5142
        34                         -0.4012777             -10.9193
        35                         -0.3509803              -9.5507
        36                         -0.3316323              -9.0242
        37                         -0.2879604              -7.8358
        38                         -0.2594308              -7.0595
        39                         -0.1865829              -5.0772
        40                         -0.0463320              -1.2608
        41                          0.0396610               1.0792
       ...                                ...                  ...
        52                          0.5910872              16.0843
      -------------------------------------------------------------
                  HL-Gap            0.0005328 Eh            0.0145 eV
             Fermi-level           -0.4628301 Eh          -12.5942 eV

     #   Z          covCN         q      C6AA      α(0)
     1   6 C        0.979    -0.021    36.529    10.150
     2   6 C        2.723     0.414    20.034     7.327
     3   8 O        0.856    -0.333    20.392     6.054
     4   8 O        1.704    -0.176    16.966     5.561
     5   6 C        2.884     0.197    23.818     8.001
     6   6 C        1.985     0.030    30.292     8.888
     7   6 C        1.987     0.095    28.698     8.651
     8   6 C        1.984     0.104    28.484     8.619
     9   6 C        1.990     0.066    29.392     8.755
    10   6 C        2.959     0.036    27.203     8.555
    11   6 C        2.693     0.409    20.099     7.337
    12   8 O        0.856    -0.406    21.800     6.260
    13   8 O        0.855    -0.412    21.929     6.278

 Mol. C6AA /au·bohr⁶  :       4158.630039
 Mol. C8AA /au·bohr⁸  :     109574.685631
 Mol. α(0) /au        :        100.438586


Wiberg/Mayer (AO) data.
largest (>0.10) Wiberg bond orders for each atom

 ---------------------------------------------------------------------------
     #   Z sym  total        # sym  WBO       # sym  WBO       # sym  WBO
 ---------------------------------------------------------------------------
     1   6 C    1.385 --     2 C    1.148     3 O    0.155
     2   6 C    3.896 --     3 O    1.690     1 C    1.148     4 O    1.016
     3   8 O    2.043 --     2 C    1.690     4 O    0.169     1 C    0.155
     4   8 O    2.350 --     2 C    1.016     5 C    1.008     3 O    0.169
     5   6 C    3.926 --     6 C    1.355    10 C    1.294     4 O    1.008
                             8 C    0.118
     6   6 C    3.582 --     7 C    1.617     5 C    1.355     9 C    0.204
                             8 C    0.160    13 O    0.114
     7   6 C    3.871 --     8 C    1.770     6 C    1.617    10 C    0.147
                             9 C    0.143
     8   6 C    3.866 --     7 C    1.770     9 C    1.688     6 C    0.160
                             5 C    0.118
     9   6 C    3.616 --     8 C    1.688    10 C    1.383     6 C    0.204
                             7 C    0.143
    10   6 C    3.935 --     9 C    1.383     5 C    1.294    11 C    0.916
                             7 C    0.147
    11   6 C    3.936 --    12 O    1.644    13 O    1.314    10 C    0.916
    12   8 O    2.065 --    11 C    1.644    13 O    0.197
    13   8 O    1.804 --    11 C    1.314    12 O    0.197     6 C    0.114
 ---------------------------------------------------------------------------

Topologies differ in total number of bonds
Writing topology from bond orders to xtbtopo.mol

molecular dipole:
                 x           y           z       tot (Debye)
 q only:       -1.114       3.109       0.686
   full:       -0.789       3.552       0.632       9.387
molecular quadrupole (traceless):
                xx          xy          yy          xz          yz          zz
 q only:       -5.645      12.528       4.532      -0.456      -0.104       1.113
  q+dip:       -6.622      10.679       6.290      -0.739      -0.074       0.332
   full:       -7.633      10.041       4.069       0.903       0.648       3.564


           -------------------------------------------------
          | TOTAL ENERGY              -34.912802780005 Eh   |
          | GRADIENT NORM               0.232319436538 Eh/α |
          | HOMO-LUMO GAP               0.014497657015 eV   |
           -------------------------------------------------
           ------------------------------------------------- 
          |               Molecular Dynamics                |
           ------------------------------------------------- 
 trajectories on xtb.trj or xtb.trj.<n>
 
 MD time /ps        :10000.00
 dt /fs             :    4.00
 SCC accuracy       :    2.00
 temperature /K     :  310.00
 max steps          :******
 block length (av.) :  1250
 dumpstep(trj) /fs  :   50.00    12
 dumpstep(coords)/fs: 1000.00   250
 H atoms mass (amu) :     4
 # deg. of freedom  :    26
 SHAKE on. # bonds  :          13  all: F
 Berendsen THERMOSTAT on
         time (ps)    <Epot>      Ekin   <T>   T     Etot
      0    0.00      0.00000   0.0128    0.    0.   -34.90004
est. speed in wall clock h for 100 ps :  0.16
    200    0.80    -34.79642   0.0435 1164. 1057.   -34.95269
    400    1.60    -34.89670   0.0325  997.  790.   -34.97188
    600    2.40    -34.93357   0.0255  859.  620.   -34.98980
    800    3.20    -34.95342   0.0160  762.  388.   -34.99693
   1000    4.00    -34.96586   0.0133  690.  324.   -35.00116
   1200    4.80    -34.97444   0.0141  637.  341.   -35.00239
block <Epot> / <T> :     -35.00417  626.     drift:  0.99D+02   Tbath : 310.
   1400    5.60    -34.98072   0.0149  595.  362.   -35.00356
   1600    6.40    -34.98550   0.0139  563.  337.   -35.00583
   1800    7.20    -34.98926   0.0110  536.  268.   -35.00829
   2000    8.00    -34.99230   0.0116  514.  281.   -35.00524
   2200    8.80    -34.99481   0.0137  496.  334.   -35.00697
   2400    9.60    -34.99691   0.0138  481.  335.   -35.00673
block <Epot> / <T> :     -35.01951  322.     drift:  0.99D+02   Tbath : 310.
   2600   10.40    -34.99869   0.0111  468.  270.   -35.00719
   2800   11.20    -35.00022   0.0117  456.  285.   -35.00825
   3000   12.00    -35.00155   0.0138  446.  335.   -35.00702
   3200   12.80    -35.00272   0.0148  438.  360.   -35.00830
   3400   13.60    -35.00375   0.0125  430.  305.   -35.00676
   3600   14.40    -35.00466   0.0127  423.  309.   -35.00825
block <Epot> / <T> :     -35.02015  306.     drift:  0.99D+02   Tbath : 310.
   3800   15.20    -35.00547   0.0137  417.  333.   -35.00860
   4000   16.00    -35.00621   0.0125  411.  304.   -35.00755
   4200   16.80    -35.00687   0.0129  406.  314.   -35.00789
   4400   17.60    -35.00747   0.0098  402.  237.   -35.00803
   4600   18.40    -35.00802   0.0123  398.  298.   -35.00725
   4800   19.20    -35.00852   0.0107  394.  261.   -35.00666
   5000   20.00    -35.00898   0.0126  390.  305.   -35.00841
block <Epot> / <T> :     -35.02011  307.     drift: -0.48D-02   Tbath : 310.
   5200   20.80    -35.00941   0.0095  387.  231.   -35.00760
   5400   21.60    -35.00981   0.0138  384.  335.   -35.00725
   5600   22.40    -35.01017   0.0125  381.  303.   -35.00869
   5800   23.20    -35.01051   0.0122  379.  297.   -35.00751
   6000   24.00    -35.01083   0.0107  376.  259.   -35.00808
   6200   24.80    -35.01114   0.0135  374.  328.   -35.00687
block <Epot> / <T> :     -35.02011  307.     drift: -0.17D-03   Tbath : 310.
   6400   25.60    -35.01142   0.0142  372.  345.   -35.00729
   6600   26.40    -35.01168   0.0131  370.  318.   -35.00718
   6800   27.20    -35.01193   0.0127  368.  308.   -35.00816
   7000   28.00    -35.01217   0.0109  366.  264.   -35.00770
   7200   28.80    -35.01239   0.0145  365.  352.   -35.00820
   7400   29.60    -35.01260   0.0104  363.  254.   -35.00820
block <Epot> / <T> :     -35.02013  306.     drift:  0.65D-05   Tbath : 310.
   7600   30.40    -35.01279   0.0121  362.  293.   -35.00915
   7800   31.20    -35.01298   0.0123  360.  299.   -35.00537
   8000   32.00    -35.01316   0.0129  359.  313.   -35.00935
   8200   32.80    -35.01333   0.0149  358.  361.   -35.00742
   8400   33.60    -35.01349   0.0115  356.  280.   -35.00680
   8600   34.40    -35.01364   0.0138  355.  334.   -35.00889
block <Epot> / <T> :     -35.02010  307.     drift:  0.14D-05   Tbath : 310.
   8800   35.20    -35.01379   0.0141  354.  341.   -35.00908
   9000   36.00    -35.01393   0.0142  353.  344.   -35.00813
   9200   36.80    -35.01407   0.0135  352.  328.   -35.00656
   9400   37.60    -35.01419   0.0118  351.  288.   -35.00934
   9600   38.40    -35.01432   0.0117  350.  284.   -35.00892
   9800   39.20    -35.01444   0.0122  349.  297.   -35.00835
  10000   40.00    -35.01455   0.0136  348.  330.   -35.00667
block <Epot> / <T> :     -35.02012  306.     drift:  0.17D-05   Tbath : 310.
  10200   40.80    -35.01466   0.0127  348.  308.   -35.00844
  10400   41.60    -35.01476   0.0134  347.  325.   -35.00714
  10600   42.40    -35.01486   0.0141  346.  342.   -35.00640
  10800   43.20    -35.01496   0.0132  345.  321.   -35.00778
  11000   44.00    -35.01505   0.0113  345.  274.   -35.00845
  11200   44.80    -35.01514   0.0114  344.  277.   -35.00738
block <Epot> / <T> :     -35.02010  306.     drift:  0.76D-05   Tbath : 310.
  11400   45.60    -35.01523   0.0128  343.  311.   -35.00883
  11600   46.40    -35.01532   0.0103  343.  250.   -35.00702
  11800   47.20    -35.01540   0.0115  342.  279.   -35.00834
  12000   48.00    -35.01547   0.0135  341.  328.   -35.00746
  12200   48.80    -35.01555   0.0111  341.  269.   -35.00788
  12400   49.60    -35.01562   0.0116  340.  283.   -35.00749
block <Epot> / <T> :     -35.02011  307.     drift: -0.28D-05   Tbath : 310.
  12600   50.40    -35.01570   0.0151  340.  368.   -35.00745
  12800   51.20    -35.01576   0.0121  339.  293.   -35.00715
  13000   52.00    -35.01583   0.0118  339.  286.   -35.00895
  13200   52.80    -35.01589   0.0133  338.  322.   -35.00867
  13400   53.60    -35.01595   0.0122  338.  296.   -35.00660
  13600   54.40    -35.01601   0.0125  337.  304.   -35.00704
block <Epot> / <T> :     -35.02002  306.     drift:  0.29D-04   Tbath : 310.
  13800   55.20    -35.01607   0.0131  337.  318.   -35.00759
  14000   56.00    -35.01613   0.0121  336.  295.   -35.00688
  14200   56.80    -35.01618   0.0141  336.  342.   -35.00651
  14400   57.60    -35.01624   0.0116  336.  282.   -35.00861
  14600   58.40    -35.01629   0.0133  335.  324.   -35.00629
  14800   59.20    -35.01634   0.0117  335.  284.   -35.00778
  15000   60.00    -35.01639   0.0141  334.  341.   -35.00608
block <Epot> / <T> :     -35.02008  307.     drift:  0.16D-04   Tbath : 310.
  15200   60.80    -35.01644   0.0141  334.  343.   -35.00803
  15400   61.60    -35.01649   0.0150  334.  365.   -35.00676
  15600   62.40    -35.01653   0.0115  333.  280.   -35.00826
  15800   63.20    -35.01658   0.0122  333.  298.   -35.00586
  16000   64.00    -35.01662   0.0150  333.  364.   -35.00638
  16200   64.80    -35.01667   0.0142  332.  344.   -35.00730
block <Epot> / <T> :     -35.02013  307.     drift: -0.10D-04   Tbath : 310.
  16400   65.60    -35.01671   0.0110  332.  266.   -35.00858
  16600   66.40    -35.01675   0.0155  332.  376.   -35.00734
  16800   67.20    -35.01680   0.0112  331.  272.   -35.00844
  17000   68.00    -35.01684   0.0139  331.  337.   -35.00808
  17200   68.80    -35.01688   0.0124  331.  302.   -35.00837
  17400   69.60    -35.01691   0.0114  331.  278.   -35.00697
block <Epot> / <T> :     -35.02022  305.     drift: -0.66D-04   Tbath : 310.
  17600   70.40    -35.01695   0.0120  330.  291.   -35.00763
  17800   71.20    -35.01699   0.0139  330.  339.   -35.00668
  18000   72.00    -35.01702   0.0121  330.  295.   -35.00699
  18200   72.80    -35.01706   0.0114  329.  278.   -35.00749
  18400   73.60    -35.01709   0.0144  329.  350.   -35.00699
  18600   74.40    -35.01712   0.0120  329.  291.   -35.00755
block <Epot> / <T> :     -35.02010  306.     drift: -0.15D-04   Tbath : 310.
  18800   75.20    -35.01715   0.0142  329.  345.   -35.00963
  19000   76.00    -35.01718   0.0139  328.  339.   -35.00653
  19200   76.80    -35.01721   0.0141  328.  343.   -35.00719
  19400   77.60    -35.01724   0.0110  328.  266.   -35.00714
  19600   78.40    -35.01727   0.0123  328.  299.   -35.00633
  19800   79.20    -35.01730   0.0121  328.  295.   -35.00637
  20000   80.00    -35.01733   0.0122  327.  297.   -35.00801
block <Epot> / <T> :     -35.02007  307.     drift:  0.30D-04   Tbath : 310.
  20200   80.80    -35.01735   0.0120  327.  292.   -35.00835
  20400   81.60    -35.01738   0.0116  327.  283.   -35.00771
  20600   82.40    -35.01741   0.0117  327.  285.   -35.00896
  20800   83.20    -35.01743   0.0104  327.  253.   -35.00794
  21000   84.00    -35.01746   0.0123  326.  299.   -35.00691
  21200   84.80    -35.01749   0.0125  326.  305.   -35.00732
block <Epot> / <T> :     -35.02016  306.     drift:  0.23D-04   Tbath : 310.
  21400   85.60    -35.01751   0.0120  326.  291.   -35.00773
  21600   86.40    -35.01754   0.0129  326.  313.   -35.00848
  21800   87.20    -35.01756   0.0109  326.  266.   -35.00835
  22000   88.00    -35.01758   0.0119  325.  289.   -35.00746
  22200   88.80    -35.01761   0.0128  325.  311.   -35.00764
  22400   89.60    -35.01763   0.0113  325.  275.   -35.00732
block <Epot> / <T> :     -35.02016  306.     drift: -0.26D-04   Tbath : 310.
  22600   90.40    -35.01765   0.0096  325.  233.   -35.00908
  22800   91.20    -35.01767   0.0101  325.  246.   -35.00742
  23000   92.00    -35.01769   0.0107  325.  259.   -35.00808
  23200   92.80    -35.01772   0.0144  324.  349.   -35.00507
  23400   93.60    -35.01774   0.0134  324.  326.   -35.00765
  23600   94.40    -35.01776   0.0129  324.  314.   -35.00594
block <Epot> / <T> :     -35.02015  307.     drift: -0.26D-04   Tbath : 310.
  23800   95.20    -35.01778   0.0140  324.  341.   -35.00729
  24000   96.00    -35.01780   0.0138  324.  335.   -35.00907
  24200   96.80    -35.01782   0.0114  324.  276.   -35.00762
  24400   97.60    -35.01784   0.0112  324.  273.   -35.00612
  24600   98.40    -35.01786   0.0116  323.  283.   -35.00741
  24800   99.20    -35.01787   0.0118  323.  286.   -35.00760
  25000  100.00    -35.01789   0.0140  323.  341.   -35.00746
block <Epot> / <T> :     -35.02017  306.     drift: -0.32D-05   Tbath : 310.
  25200  100.80    -35.01791   0.0125  323.  303.   -35.00787
  25400  101.60    -35.01793   0.0147  323.  357.   -35.00752
  25600  102.40    -35.01795   0.0145  323.  351.   -35.00677
  25800  103.20    -35.01796   0.0139  323.  337.   -35.00730
  26000  104.00    -35.01798   0.0132  323.  320.   -35.00758
  26200  104.80    -35.01800   0.0142  322.  344.   -35.00754
block <Epot> / <T> :     -35.02017  307.     drift: -0.71D-05   Tbath : 310.
  26400  105.60    -35.01801   0.0140  322.  339.   -35.00715
  26600  106.40    -35.01803   0.0132  322.  321.   -35.00861
  26800  107.20    -35.01804   0.0123  322.  298.   -35.00768
  27000  108.00    -35.01806   0.0118  322.  287.   -35.00702
  27200  108.80    -35.01808   0.0114  322.  276.   -35.00868
  27400  109.60    -35.01809   0.0118  322.  288.   -35.00773
block <Epot> / <T> :     -35.02012  307.     drift:  0.99D-05   Tbath : 310.
  27600  110.40    -35.01811   0.0112  322.  272.   -35.00954
  27800  111.20    -35.01812   0.0108  322.  261.   -35.00845
  28000  112.00    -35.01813   0.0111  321.  270.   -35.00845
  28200  112.80    -35.01815   0.0094  321.  229.   -35.00789
  28400  113.60    -35.01816   0.0132  321.  321.   -35.00689
  28600  114.40    -35.01817   0.0128  321.  310.   -35.00792
block <Epot> / <T> :     -35.02010  306.     drift:  0.27D-04   Tbath : 310.
  28800  115.20    -35.01819   0.0115  321.  278.   -35.00770
  29000  116.00    -35.01820   0.0146  321.  354.   -35.00590
  29200  116.80    -35.01821   0.0136  321.  331.   -35.00817
  29400  117.60    -35.01823   0.0145  321.  352.   -35.00659
  29600  118.40    -35.01824   0.0134  321.  324.   -35.00898
  29800  119.20    -35.01825   0.0122  321.  297.   -35.00785
  30000  120.00    -35.01826   0.0139  320.  337.   -35.00797
block <Epot> / <T> :     -35.02007  306.     drift:  0.33D-04   Tbath : 310.
  30200  120.80    -35.01828   0.0121  320.  293.   -35.00721
  30400  121.60    -35.01829   0.0142  320.  344.   -35.00722
  30600  122.40    -35.01830   0.0111  320.  270.   -35.00681
  30800  123.20    -35.01831   0.0123  320.  298.   -35.00651
  31000  124.00    -35.01833   0.0127  320.  308.   -35.00648
  31200  124.80    -35.01834   0.0124  320.  300.   -35.00768
block <Epot> / <T> :     -35.02022  307.     drift: -0.28D-04   Tbath : 310.
  31400  125.60    -35.01835   0.0120  320.  291.   -35.00672
  31600  126.40    -35.01836   0.0115  320.  278.   -35.00920
  31800  127.20    -35.01837   0.0118  320.  287.   -35.00792
  32000  128.00    -35.01839   0.0142  320.  345.   -35.00686
  32200  128.80    -35.01840   0.0107  320.  261.   -35.00711
  32400  129.60    -35.01841   0.0147  319.  358.   -35.00770
block <Epot> / <T> :     -35.02024  307.     drift: -0.58D-04   Tbath : 310.
  32600  130.40    -35.01842   0.0128  319.  312.   -35.00697
  32800  131.20    -35.01843   0.0152  319.  369.   -35.00644
  33000  132.00    -35.01844   0.0147  319.  357.   -35.00784
  33200  132.80    -35.01845   0.0114  319.  277.   -35.00745
  33400  133.60    -35.01846   0.0127  319.  309.   -35.00857
  33600  134.40    -35.01847   0.0141  319.  342.   -35.00616
block <Epot> / <T> :     -35.02019  307.     drift: -0.38D-04   Tbath : 310.
  33800  135.20    -35.01848   0.0138  319.  336.   -35.00658
  34000  136.00    -35.01849   0.0142  319.  346.   -35.00878
  34200  136.80    -35.01850   0.0118  319.  286.   -35.00743
  34400  137.60    -35.01851   0.0132  319.  321.   -35.00814
  34600  138.40    -35.01852   0.0123  319.  299.   -35.00903
  34800  139.20    -35.01853   0.0120  319.  293.   -35.00753
  35000  140.00    -35.01854   0.0160  318.  389.   -35.00561
block <Epot> / <T> :     -35.02026  307.     drift: -0.78D-05   Tbath : 310.
  35200  140.80    -35.01855   0.0126  318.  306.   -35.00737
  35400  141.60    -35.01856   0.0138  318.  334.   -35.00665
  35600  142.40    -35.01857   0.0122  318.  295.   -35.00921
  35800  143.20    -35.01858   0.0127  318.  308.   -35.00762
  36000  144.00    -35.01859   0.0115  318.  280.   -35.00718
  36200  144.80    -35.01860   0.0132  318.  320.   -35.00763
block <Epot> / <T> :     -35.02015  307.     drift:  0.19D-04   Tbath : 310.
  36400  145.60    -35.01861   0.0125  318.  303.   -35.00729
  36600  146.40    -35.01861   0.0131  318.  318.   -35.00784
  36800  147.20    -35.01862   0.0124  318.  302.   -35.00906
  37000  148.00    -35.01863   0.0101  318.  246.   -35.00622
  37200  148.80    -35.01864   0.0124  318.  302.   -35.00843
  37400  149.60    -35.01865   0.0146  318.  356.   -35.00767
block <Epot> / <T> :     -35.02018  307.     drift:  0.15D-04   Tbath : 310.
  37600  150.40    -35.01866   0.0104  318.  253.   -35.00854
  37800  151.20    -35.01866   0.0129  318.  312.   -35.00705
  38000  152.00    -35.01867   0.0134  318.  326.   -35.00855
  38200  152.80    -35.01868   0.0131  318.  319.   -35.00552
  38400  153.60    -35.01869   0.0124  317.  302.   -35.00944
  38600  154.40    -35.01869   0.0125  317.  303.   -35.00775
block <Epot> / <T> :     -35.02015  306.     drift:  0.30D-04   Tbath : 310.
  38800  155.20    -35.01870   0.0130  317.  316.   -35.00773
  39000  156.00    -35.01871   0.0117  317.  283.   -35.00867
  39200  156.80    -35.01872   0.0138  317.  336.   -35.00771
  39400  157.60    -35.01872   0.0118  317.  287.   -35.00854
  39600  158.40    -35.01873   0.0110  317.  268.   -35.00879
  39800  159.20    -35.01874   0.0134  317.  326.   -35.00748
  40000  160.00    -35.01875   0.0114  317.  277.   -35.00835
block <Epot> / <T> :     -35.02019  308.     drift: -0.87D-05   Tbath : 310.
  40200  160.80    -35.01875   0.0131  317.  317.   -35.00621
  40400  161.60    -35.01876   0.0103  317.  250.   -35.00871
  40600  162.40    -35.01877   0.0114  317.  276.   -35.00708
  40800  163.20    -35.01877   0.0138  317.  334.   -35.00823
  41000  164.00    -35.01878   0.0132  317.  320.   -35.00647
  41200  164.80    -35.01879   0.0140  317.  339.   -35.00791
block <Epot> / <T> :     -35.02013  307.     drift:  0.12D-04   Tbath : 310.
  41400  165.60    -35.01879   0.0132  317.  320.   -35.00747
  41600  166.40    -35.01880   0.0132  317.  321.   -35.00845
  41800  167.20    -35.01881   0.0145  317.  353.   -35.00478
  42000  168.00    -35.01881   0.0116  317.  282.   -35.00864
  42200  168.80    -35.01882   0.0131  317.  317.   -35.00942
  42400  169.60    -35.01883   0.0150  316.  364.   -35.00653
block <Epot> / <T> :     -35.02014  306.     drift:  0.12D-04   Tbath : 310.
  42600  170.40    -35.01883   0.0115  316.  279.   -35.00656
  42800  171.20    -35.01884   0.0123  316.  299.   -35.00748
  43000  172.00    -35.01884   0.0137  316.  332.   -35.00635
  43200  172.80    -35.01885   0.0123  316.  299.   -35.00734
  43400  173.60    -35.01886   0.0129  316.  313.   -35.00685
  43600  174.40    -35.01886   0.0123  316.  299.   -35.00738
block <Epot> / <T> :     -35.02016  307.     drift:  0.81D-05   Tbath : 310.
  43800  175.20    -35.01887   0.0144  316.  349.   -35.00587
  44000  176.00    -35.01887   0.0138  316.  335.   -35.00655
  44200  176.80    -35.01888   0.0093  316.  226.   -35.01092
  44400  177.60    -35.01888   0.0120  316.  292.   -35.00703
  44600  178.40    -35.01889   0.0144  316.  350.   -35.00597
  44800  179.20    -35.01890   0.0122  316.  297.   -35.00869
  45000  180.00    -35.01890   0.0123  316.  299.   -35.00555
block <Epot> / <T> :     -35.02010  306.     drift:  0.44D-05   Tbath : 310.
  45200  180.80    -35.01891   0.0128  316.  311.   -35.00745
  45400  181.60    -35.01891   0.0138  316.  335.   -35.00921
  45600  182.40    -35.01892   0.0125  316.  304.   -35.00617
  45800  183.20    -35.01892   0.0123  316.  300.   -35.00960
  46000  184.00    -35.01893   0.0123  316.  299.   -35.00710
  46200  184.80    -35.01893   0.0121  316.  294.   -35.00924
block <Epot> / <T> :     -35.02017  308.     drift: -0.44D-05   Tbath : 310.
  46400  185.60    -35.01894   0.0121  316.  294.   -35.00743
  46600  186.40    -35.01894   0.0125  316.  304.   -35.00831
  46800  187.20    -35.01895   0.0123  316.  299.   -35.00786
  47000  188.00    -35.01896   0.0117  316.  284.   -35.00842
  47200  188.80    -35.01896   0.0134  315.  324.   -35.00732
  47400  189.60    -35.01896   0.0120  315.  293.   -35.00847
block <Epot> / <T> :     -35.02014  306.     drift: -0.14D-06   Tbath : 310.
  47600  190.40    -35.01897   0.0122  315.  295.   -35.00747
  47800  191.20    -35.01897   0.0119  315.  290.   -35.00653
  48000  192.00    -35.01898   0.0100  315.  242.   -35.00846
  48200  192.80    -35.01898   0.0142  315.  346.   -35.00629
  48400  193.60    -35.01899   0.0112  315.  273.   -35.00728
  48600  194.40    -35.01899   0.0126  315.  307.   -35.00686
block <Epot> / <T> :     -35.02011  307.     drift:  0.18D-05   Tbath : 310.
  48800  195.20    -35.01900   0.0140  315.  339.   -35.00773
  49000  196.00    -35.01900   0.0113  315.  275.   -35.00565
  49200  196.80    -35.01901   0.0159  315.  385.   -35.00729
  49400  197.60    -35.01901   0.0154  315.  373.   -35.00714
  49600  198.40    -35.01902   0.0138  315.  335.   -35.00935
  49800  199.20    -35.01902   0.0147  315.  356.   -35.00662
  50000  200.00    -35.01902   0.0172  315.  419.   -35.00724
block <Epot> / <T> :     -35.02013  307.     drift:  0.14D-04   Tbath : 310.
  50200  200.80    -35.01903   0.0107  315.  261.   -35.00880
  50400  201.60    -35.01903   0.0114  315.  277.   -35.00859
  50600  202.40    -35.01904   0.0133  315.  322.   -35.00763
  50800  203.20    -35.01904   0.0113  315.  274.   -35.00707
  51000  204.00    -35.01905   0.0127  315.  309.   -35.00848
  51200  204.80    -35.01905   0.0157  315.  381.   -35.00649
block <Epot> / <T> :     -35.02025  308.     drift: -0.37D-04   Tbath : 310.
  51400  205.60    -35.01906   0.0132  315.  322.   -35.00807
  51600  206.40    -35.01906   0.0107  315.  260.   -35.00858
  51800  207.20    -35.01907   0.0120  315.  292.   -35.00795
  52000  208.00    -35.01907   0.0127  315.  310.   -35.00750
  52200  208.80    -35.01908   0.0137  315.  332.   -35.00701
  52400  209.60    -35.01908   0.0105  315.  256.   -35.00779
block <Epot> / <T> :     -35.02029  307.     drift: -0.68D-04   Tbath : 310.
  52600  210.40    -35.01909   0.0149  315.  363.   -35.00695
  52800  211.20    -35.01909   0.0121  315.  295.   -35.00657
  53000  212.00    -35.01909   0.0097  315.  236.   -35.00876
  53200  212.80    -35.01910   0.0131  315.  319.   -35.00706
  53400  213.60    -35.01910   0.0139  314.  337.   -35.00751
  53600  214.40    -35.01911   0.0131  314.  317.   -35.00700
block <Epot> / <T> :     -35.02024  306.     drift: -0.35D-04   Tbath : 310.
  53800  215.20    -35.01911   0.0121  314.  294.   -35.00797
  54000  216.00    -35.01912   0.0129  314.  313.   -35.00784
  54200  216.80    -35.01912   0.0131  314.  317.   -35.00777
  54400  217.60    -35.01912   0.0134  314.  327.   -35.00918
  54600  218.40    -35.01913   0.0123  314.  300.   -35.00817
  54800  219.20    -35.01913   0.0129  314.  314.   -35.00594
  55000  220.00    -35.01913   0.0105  314.  255.   -35.00861
block <Epot> / <T> :     -35.02015  306.     drift:  0.35D-04   Tbath : 310.
  55200  220.80    -35.01914   0.0129  314.  314.   -35.00807
  55400  221.60    -35.01914   0.0119  314.  288.   -35.00669
  55600  222.40    -35.01914   0.0114  314.  278.   -35.00691
  55800  223.20    -35.01915   0.0129  314.  312.   -35.00720
  56000  224.00    -35.01915   0.0131  314.  317.   -35.00624
  56200  224.80    -35.01915   0.0129  314.  313.   -35.00881
block <Epot> / <T> :     -35.02012  307.     drift:  0.62D-04   Tbath : 310.
  56400  225.60    -35.01916   0.0140  314.  340.   -35.00772
  56600  226.40    -35.01916   0.0129  314.  314.   -35.00858
  56800  227.20    -35.01916   0.0123  314.  300.   -35.00613
  57000  228.00    -35.01917   0.0107  314.  260.   -35.00708
  57200  228.80    -35.01917   0.0124  314.  300.   -35.00645
  57400  229.60    -35.01917   0.0130  314.  316.   -35.00913
block <Epot> / <T> :     -35.02009  306.     drift:  0.46D-04   Tbath : 310.
  57600  230.40    -35.01918   0.0119  314.  288.   -35.00651
  57800  231.20    -35.01918   0.0128  314.  311.   -35.00616
  58000  232.00    -35.01919   0.0130  314.  317.   -35.00842
  58200  232.80    -35.01919   0.0117  314.  283.   -35.00627
  58400  233.60    -35.01919   0.0135  314.  328.   -35.00835
  58600  234.40    -35.01920   0.0149  314.  363.   -35.00693
block <Epot> / <T> :     -35.02022  307.     drift: -0.17D-04   Tbath : 310.
  58800  235.20    -35.01920   0.0129  314.  313.   -35.00818
  59000  236.00    -35.01920   0.0123  314.  300.   -35.00729
  59200  236.80    -35.01921   0.0095  314.  230.   -35.00929
  59400  237.60    -35.01921   0.0106  314.  257.   -35.00766
  59600  238.40    -35.01921   0.0108  314.  262.   -35.00950
  59800  239.20    -35.01922   0.0135  314.  329.   -35.00764
  60000  240.00    -35.01922   0.0104  314.  252.   -35.00875
block <Epot> / <T> :     -35.02019  306.     drift: -0.35D-04   Tbath : 310.
  60200  240.80    -35.01922   0.0116  314.  282.   -35.00836
  60400  241.60    -35.01923   0.0134  314.  327.   -35.00716
  60600  242.40    -35.01923   0.0141  314.  342.   -35.00790
  60800  243.20    -35.01923   0.0098  314.  239.   -35.00726
  61000  244.00    -35.01923   0.0126  314.  305.   -35.00847
  61200  244.80    -35.01924   0.0132  313.  320.   -35.00652
block <Epot> / <T> :     -35.02013  307.     drift: -0.77D-05   Tbath : 310.
  61400  245.60    -35.01924   0.0126  313.  306.   -35.00705
  61600  246.40    -35.01924   0.0135  313.  327.   -35.00618
  61800  247.20    -35.01925   0.0115  313.  278.   -35.00718
  62000  248.00    -35.01925   0.0129  313.  313.   -35.00726
  62200  248.80    -35.01925   0.0128  313.  310.   -35.00594
  62400  249.60    -35.01925   0.0143  313.  347.   -35.00657
block <Epot> / <T> :     -35.02013  307.     drift:  0.33D-04   Tbath : 310.
  62600  250.40    -35.01926   0.0124  313.  301.   -35.00984
  62800  251.20    -35.01926   0.0144  313.  350.   -35.00832
  63000  252.00    -35.01926   0.0130  313.  315.   -35.00675
  63200  252.80    -35.01927   0.0133  313.  324.   -35.00797
  63400  253.60    -35.01927   0.0147  313.  357.   -35.00615
  63600  254.40    -35.01927   0.0142  313.  345.   -35.00856
block <Epot> / <T> :     -35.02015  307.     drift:  0.12D-04   Tbath : 310.
  63800  255.20    -35.01927   0.0136  313.  331.   -35.00623
  64000  256.00    -35.01928   0.0134  313.  325.   -35.00586
  64200  256.80    -35.01928   0.0114  313.  276.   -35.00832
  64400  257.60    -35.01928   0.0135  313.  328.   -35.00520
  64600  258.40    -35.01928   0.0116  313.  281.   -35.00834
  64800  259.20    -35.01929   0.0121  313.  293.   -35.00815
  65000  260.00    -35.01929   0.0095  313.  232.   -35.00825
block <Epot> / <T> :     -35.02013  307.     drift: -0.20D-05   Tbath : 310.
  65200  260.80    -35.01929   0.0133  313.  324.   -35.00753
  65400  261.60    -35.01930   0.0155  313.  375.   -35.00662
  65600  262.40    -35.01930   0.0131  313.  318.   -35.00976
  65800  263.20    -35.01930   0.0141  313.  344.   -35.00606
  66000  264.00    -35.01930   0.0132  313.  321.   -35.00616
  66200  264.80    -35.01931   0.0137  313.  332.   -35.00761
block <Epot> / <T> :     -35.02016  307.     drift: -0.74D-05   Tbath : 310.
  66400  265.60    -35.01931   0.0096  313.  233.   -35.00889
  66600  266.40    -35.01931   0.0124  313.  300.   -35.00841
  66800  267.20    -35.01931   0.0138  313.  335.   -35.00762
  67000  268.00    -35.01932   0.0104  313.  253.   -35.00843
  67200  268.80    -35.01932   0.0104  313.  253.   -35.00705
  67400  269.60    -35.01932   0.0108  313.  263.   -35.00866
block <Epot> / <T> :     -35.02011  307.     drift:  0.10D-04   Tbath : 310.
  67600  270.40    -35.01932   0.0142  313.  344.   -35.00639
  67800  271.20    -35.01932   0.0126  313.  306.   -35.00810
  68000  272.00    -35.01933   0.0134  313.  326.   -35.00696
  68200  272.80    -35.01933   0.0112  313.  273.   -35.00924
  68400  273.60    -35.01933   0.0128  313.  312.   -35.00630
  68600  274.40    -35.01933   0.0139  313.  339.   -35.00642
  68800  275.20    -35.01934   0.0154  313.  373.   -35.00759
block <Epot> / <T> :     -35.02013  308.     drift:  0.44D-05   Tbath : 310.
  69000  276.00    -35.01934   0.0134  313.  325.   -35.00851
  69200  276.80    -35.01934   0.0130  313.  316.   -35.00719
  69400  277.60    -35.01934   0.0128  313.  311.   -35.00761
  69600  278.40    -35.01935   0.0115  313.  280.   -35.00870
  69800  279.20    -35.01935   0.0116  313.  283.   -35.00831
  70000  280.00    -35.01935   0.0121  313.  293.   -35.00834
block <Epot> / <T> :     -35.02010  307.     drift:  0.15D-04   Tbath : 310.
  70200  280.80    -35.01935   0.0127  313.  309.   -35.00813
  70400  281.60    -35.01935   0.0104  313.  253.   -35.00827
  70600  282.40    -35.01936   0.0114  313.  278.   -35.00803
  70800  283.20    -35.01936   0.0129  313.  313.   -35.00673
  71000  284.00    -35.01936   0.0107  313.  260.   -35.00823
  71200  284.80    -35.01936   0.0114  313.  278.   -35.00772
block <Epot> / <T> :     -35.02020  307.     drift: -0.24D-04   Tbath : 310.
  71400  285.60    -35.01937   0.0116  313.  282.   -35.00768
  71600  286.40    -35.01937   0.0133  313.  322.   -35.00820
  71800  287.20    -35.01937   0.0121  313.  294.   -35.00750
  72000  288.00    -35.01937   0.0124  312.  301.   -35.00653
  72200  288.80    -35.01937   0.0134  312.  326.   -35.00720
  72400  289.60    -35.01938   0.0126  312.  306.   -35.00760
block <Epot> / <T> :     -35.02010  305.     drift:  0.66D-06   Tbath : 310.
  72600  290.40    -35.01938   0.0109  312.  264.   -35.00769
  72800  291.20    -35.01938   0.0126  312.  305.   -35.00847
  73000  292.00    -35.01938   0.0137  312.  332.   -35.00806
  73200  292.80    -35.01938   0.0109  312.  266.   -35.00763
  73400  293.60    -35.01939   0.0108  312.  261.   -35.00883
  73600  294.40    -35.01939   0.0158  312.  383.   -35.00675
  73800  295.20    -35.01939   0.0101  312.  246.   -35.00847
block <Epot> / <T> :     -35.02012  306.     drift:  0.47D-05   Tbath : 310.
  74000  296.00    -35.01939   0.0123  312.  300.   -35.00824
  74200  296.80    -35.01939   0.0130  312.  316.   -35.00840
  74400  297.60    -35.01940   0.0110  312.  266.   -35.00747
  74600  298.40    -35.01940   0.0138  312.  336.   -35.00589
  74800  299.20    -35.01940   0.0107  312.  260.   -35.00981
  75000  300.00    -35.01940   0.0118  312.  287.   -35.00716
block <Epot> / <T> :     -35.02016  307.     drift:  0.87D-05   Tbath : 310.
  75200  300.80    -35.01940   0.0120  312.  292.   -35.00670
  75400  301.60    -35.01941   0.0119  312.  289.   -35.00711
  75600  302.40    -35.01941   0.0099  312.  242.   -35.00826
  75800  303.20    -35.01941   0.0139  312.  338.   -35.00679
  76000  304.00    -35.01941   0.0131  312.  317.   -35.00800
  76200  304.80    -35.01941   0.0104  312.  254.   -35.00815
block <Epot> / <T> :     -35.02016  307.     drift: -0.23D-04   Tbath : 310.
  76400  305.60    -35.01942   0.0129  312.  313.   -35.00595
  76600  306.40    -35.01942   0.0143  312.  346.   -35.00579
  76800  307.20    -35.01942   0.0116  312.  282.   -35.00727
  77000  308.00    -35.01942   0.0125  312.  303.   -35.00684
  77200  308.80    -35.01942   0.0108  312.  262.   -35.00810
  77400  309.60    -35.01943   0.0120  312.  291.   -35.00902
block <Epot> / <T> :     -35.02018  306.     drift: -0.18D-04   Tbath : 310.
  77600  310.40    -35.01943   0.0119  312.  288.   -35.00810
  77800  311.20    -35.01943   0.0130  312.  315.   -35.00778
  78000  312.00    -35.01943   0.0118  312.  286.   -35.00762
  78200  312.80    -35.01943   0.0122  312.  296.   -35.00823
  78400  313.60    -35.01944   0.0124  312.  300.   -35.00791
  78600  314.40    -35.01944   0.0115  312.  279.   -35.00825
  78800  315.20    -35.01944   0.0125  312.  303.   -35.00807
block <Epot> / <T> :     -35.02022  306.     drift: -0.19D-04   Tbath : 310.
  79000  316.00    -35.01944   0.0124  312.  300.   -35.00671
  79200  316.80    -35.01944   0.0128  312.  311.   -35.00735
  79400  317.60    -35.01945   0.0126  312.  307.   -35.00666
  79600  318.40    -35.01945   0.0134  312.  326.   -35.00726
  79800  319.20    -35.01945   0.0162  312.  394.   -35.00766
  80000  320.00    -35.01945   0.0132  312.  321.   -35.00729
block <Epot> / <T> :     -35.02020  306.     drift: -0.16D-04   Tbath : 310.
  80200  320.80    -35.01945   0.0101  312.  245.   -35.00775
  80400  321.60    -35.01946   0.0129  312.  314.   -35.00897
  80600  322.40    -35.01946   0.0125  312.  305.   -35.00826
  80800  323.20    -35.01946   0.0113  312.  274.   -35.00731
  81000  324.00    -35.01946   0.0124  312.  302.   -35.00691
  81200  324.80    -35.01946   0.0117  312.  285.   -35.00930
block <Epot> / <T> :     -35.02014  306.     drift:  0.12D-04   Tbath : 310.
  81400  325.60    -35.01946   0.0120  312.  292.   -35.00585
  81600  326.40    -35.01947   0.0149  312.  363.   -35.00528
  81800  327.20    -35.01947   0.0102  312.  249.   -35.00803
  82000  328.00    -35.01947   0.0140  312.  340.   -35.00792
  82200  328.80    -35.01947   0.0139  312.  337.   -35.00719
  82400  329.60    -35.01947   0.0116  312.  281.   -35.00817
block <Epot> / <T> :     -35.02014  307.     drift:  0.29D-04   Tbath : 310.
  82600  330.40    -35.01947   0.0135  312.  327.   -35.00683
  82800  331.20    -35.01947   0.0141  312.  342.   -35.00655
  83000  332.00    -35.01948   0.0138  312.  335.   -35.00736
  83200  332.80    -35.01948   0.0113  312.  274.   -35.00780
  83400  333.60    -35.01948   0.0144  312.  349.   -35.00746
  83600  334.40    -35.01948   0.0137  312.  332.   -35.00886
  83800  335.20    -35.01948   0.0119  312.  288.   -35.00608
block <Epot> / <T> :     -35.02014  307.     drift:  0.19D-04   Tbath : 310.
  84000  336.00    -35.01948   0.0127  312.  309.   -35.00839
  84200  336.80    -35.01949   0.0112  312.  271.   -35.00756
  84400  337.60    -35.01949   0.0151  312.  366.   -35.00754
  84600  338.40    -35.01949   0.0124  312.  301.   -35.00757
  84800  339.20    -35.01949   0.0142  312.  345.   -35.00776
  85000  340.00    -35.01949   0.0132  312.  321.   -35.00692
block <Epot> / <T> :     -35.02012  306.     drift:  0.74D-05   Tbath : 310.
  85200  340.80    -35.01949   0.0135  312.  329.   -35.00687
  85400  341.60    -35.01950   0.0137  312.  332.   -35.00715
  85600  342.40    -35.01950   0.0111  312.  268.   -35.00733
  85800  343.20    -35.01950   0.0102  312.  248.   -35.00875
  86000  344.00    -35.01950   0.0128  312.  310.   -35.00779
  86200  344.80    -35.01950   0.0130  312.  315.   -35.00918
block <Epot> / <T> :     -35.02013  307.     drift:  0.56D-05   Tbath : 310.
  86400  345.60    -35.01950   0.0128  312.  310.   -35.00769
  86600  346.40    -35.01950   0.0145  311.  351.   -35.00695
  86800  347.20    -35.01951   0.0124  311.  300.   -35.00836
  87000  348.00    -35.01951   0.0114  311.  278.   -35.00842
  87200  348.80    -35.01951   0.0116  311.  281.   -35.00821
  87400  349.60    -35.01951   0.0104  311.  252.   -35.00957
block <Epot> / <T> :     -35.02016  308.     drift: -0.76D-05   Tbath : 310.
  87600  350.40    -35.01951   0.0129  311.  314.   -35.00647
  87800  351.20    -35.01951   0.0129  311.  313.   -35.00642
  88000  352.00    -35.01951   0.0124  311.  301.   -35.00788
  88200  352.80    -35.01952   0.0129  311.  313.   -35.00759
  88400  353.60    -35.01952   0.0130  311.  316.   -35.00839
  88600  354.40    -35.01952   0.0113  311.  274.   -35.00681
  88800  355.20    -35.01952   0.0122  311.  295.   -35.00723
block <Epot> / <T> :     -35.02021  307.     drift: -0.32D-04   Tbath : 310.
  89000  356.00    -35.01952   0.0113  311.  275.   -35.00800
  89200  356.80    -35.01952   0.0114  311.  276.   -35.00741
  89400  357.60    -35.01953   0.0136  311.  330.   -35.00705
  89600  358.40    -35.01953   0.0134  311.  326.   -35.00754
  89800  359.20    -35.01953   0.0140  311.  340.   -35.00777
  90000  360.00    -35.01953   0.0131  311.  318.   -35.00757
block <Epot> / <T> :     -35.02014  307.     drift: -0.97D-05   Tbath : 310.
  90200  360.80    -35.01953   0.0140  311.  341.   -35.00675
  90400  361.60    -35.01953   0.0148  311.  360.   -35.00588
  90600  362.40    -35.01953   0.0123  311.  299.   -35.00689
  90800  363.20    -35.01953   0.0099  311.  240.   -35.00860
  91000  364.00    -35.01954   0.0115  311.  278.   -35.00853
  91200  364.80    -35.01954   0.0130  311.  316.   -35.00699
block <Epot> / <T> :     -35.02013  307.     drift:  0.16D-04   Tbath : 310.
  91400  365.60    -35.01954   0.0144  311.  350.   -35.00870
  91600  366.40    -35.01954   0.0132  311.  322.   -35.00741
  91800  367.20    -35.01954   0.0131  311.  319.   -35.00687
  92000  368.00    -35.01954   0.0136  311.  330.   -35.00742
  92200  368.80    -35.01954   0.0121  311.  294.   -35.00931
  92400  369.60    -35.01955   0.0127  311.  308.   -35.00734
block <Epot> / <T> :     -35.02018  307.     drift:  0.10D-04   Tbath : 310.
  92600  370.40    -35.01955   0.0117  311.  283.   -35.00758
  92800  371.20    -35.01955   0.0108  311.  261.   -35.00666
  93000  372.00    -35.01955   0.0118  311.  286.   -35.00830
  93200  372.80    -35.01955   0.0116  311.  281.   -35.00910
  93400  373.60    -35.01955   0.0119  311.  289.   -35.00578
  93600  374.40    -35.01955   0.0133  311.  323.   -35.00774
  93800  375.20    -35.01955   0.0129  311.  312.   -35.00748
block <Epot> / <T> :     -35.02017  307.     drift: -0.14D-04   Tbath : 310.
  94000  376.00    -35.01956   0.0118  311.  287.   -35.00855
  94200  376.80    -35.01956   0.0139  311.  337.   -35.00594
  94400  377.60    -35.01956   0.0129  311.  314.   -35.00786
  94600  378.40    -35.01956   0.0109  311.  264.   -35.00891
  94800  379.20    -35.01956   0.0137  311.  333.   -35.00542
  95000  380.00    -35.01956   0.0114  311.  277.   -35.00816
block <Epot> / <T> :     -35.02013  307.     drift:  0.95D-06   Tbath : 310.
  95200  380.80    -35.01956   0.0121  311.  293.   -35.00674
  95400  381.60    -35.01956   0.0131  311.  317.   -35.00689
  95600  382.40    -35.01957   0.0148  311.  360.   -35.00768
  95800  383.20    -35.01957   0.0111  311.  269.   -35.00700
  96000  384.00    -35.01957   0.0116  311.  281.   -35.00814
  96200  384.80    -35.01957   0.0132  311.  320.   -35.00578
block <Epot> / <T> :     -35.02011  307.     drift:  0.25D-04   Tbath : 310.
  96400  385.60    -35.01957   0.0092  311.  224.   -35.00636
  96600  386.40    -35.01957   0.0165  311.  401.   -35.00827
  96800  387.20    -35.01957   0.0152  311.  369.   -35.00683
  97000  388.00    -35.01957   0.0115  311.  279.   -35.00943
  97200  388.80    -35.01957   0.0136  311.  330.   -35.00691
  97400  389.60    -35.01958   0.0121  311.  295.   -35.00952
block <Epot> / <T> :     -35.02016  307.     drift:  0.49D-05   Tbath : 310.
  97600  390.40    -35.01958   0.0125  311.  304.   -35.00845
  97800  391.20    -35.01958   0.0134  311.  326.   -35.00874
  98000  392.00    -35.01958   0.0136  311.  331.   -35.00712
  98200  392.80    -35.01958   0.0120  311.  290.   -35.00754
  98400  393.60    -35.01958   0.0130  311.  315.   -35.00779
  98600  394.40    -35.01958   0.0131  311.  319.   -35.00660
  98800  395.20    -35.01958   0.0125  311.  303.   -35.00788
block <Epot> / <T> :     -35.02016  307.     drift: -0.13D-04   Tbath : 310.
  99000  396.00    -35.01959   0.0128  311.  310.   -35.00863
  99200  396.80    -35.01959   0.0149  311.  361.   -35.00725
  99400  397.60    -35.01959   0.0120  311.  291.   -35.00830
  99600  398.40    -35.01959   0.0126  311.  305.   -35.00659
  99800  399.20    -35.01959   0.0122  311.  297.   -35.00930
 100000  400.00    -35.01959   0.0105  311.  256.   -35.00722
block <Epot> / <T> :     -35.02023  306.     drift: -0.36D-04   Tbath : 310.
 100200  400.80    -35.01959   0.0157  311.  381.   -35.00673
 100400  401.60    -35.01959   0.0125  311.  303.   -35.00612
 100600  402.40    -35.01960   0.0118  311.  288.   -35.00784
 100800  403.20    -35.01960   0.0129  311.  314.   -35.00758
 101000  404.00    -35.01960   0.0137  311.  333.   -35.00670
 101200  404.80    -35.01960   0.0103  311.  249.   -35.00876
block <Epot> / <T> :     -35.02008  306.     drift:  0.17D-04   Tbath : 310.
 101400  405.60    -35.01960   0.0122  311.  296.   -35.00582
 101600  406.40    -35.01960   0.0137  311.  333.   -35.00739
 101800  407.20    -35.01960   0.0121  311.  293.   -35.00779
 102000  408.00    -35.01960   0.0107  311.  261.   -35.00869
 102200  408.80    -35.01960   0.0124  311.  302.   -35.00722
 102400  409.60    -35.01960   0.0107  311.  260.   -35.00785
block <Epot> / <T> :     -35.02015  307.     drift:  0.19D-04   Tbath : 310.
 102600  410.40    -35.01961   0.0120  311.  291.   -35.00802
 102800  411.20    -35.01961   0.0123  311.  299.   -35.00663
 103000  412.00    -35.01961   0.0147  311.  357.   -35.00755
 103200  412.80    -35.01961   0.0156  311.  379.   -35.00593
 103400  413.60    -35.01961   0.0121  311.  293.   -35.00897
 103600  414.40    -35.01961   0.0118  311.  287.   -35.00761
 103800  415.20    -35.01961   0.0106  311.  257.   -35.00967
block <Epot> / <T> :     -35.02012  307.     drift:  0.28D-04   Tbath : 310.
 104000  416.00    -35.01961   0.0119  311.  290.   -35.00733
 104200  416.80    -35.01961   0.0116  311.  282.   -35.00779
 104400  417.60    -35.01961   0.0123  311.  300.   -35.00848
 104600  418.40    -35.01962   0.0115  311.  280.   -35.00879
 104800  419.20    -35.01962   0.0110  311.  268.   -35.00792
 105000  420.00    -35.01962   0.0110  311.  266.   -35.00774
block <Epot> / <T> :     -35.02020  307.     drift: -0.31D-04   Tbath : 310.
 105200  420.80    -35.01962   0.0122  311.  297.   -35.00734
 105400  421.60    -35.01962   0.0109  311.  265.   -35.00907
 105600  422.40    -35.01962   0.0135  311.  327.   -35.00573
 105800  423.20    -35.01962   0.0119  311.  290.   -35.00783
 106000  424.00    -35.01962   0.0144  311.  349.   -35.00852
 106200  424.80    -35.01962   0.0138  311.  334.   -35.00701
block <Epot> / <T> :     -35.02017  307.     drift: -0.13D-04   Tbath : 310.
 106400  425.60    -35.01963   0.0103  311.  250.   -35.00943
 106600  426.40    -35.01963   0.0139  311.  338.   -35.00579
 106800  427.20    -35.01963   0.0125  311.  304.   -35.00689
 107000  428.00    -35.01963   0.0145  311.  352.   -35.00815
 107200  428.80    -35.01963   0.0116  311.  282.   -35.00708
 107400  429.60    -35.01963   0.0115  311.  280.   -35.00706
block <Epot> / <T> :     -35.02015  306.     drift: -0.81D-05   Tbath : 310.
 107600  430.40    -35.01963   0.0144  311.  350.   -35.00687
 107800  431.20    -35.01963   0.0135  311.  328.   -35.00681
 108000  432.00    -35.01963   0.0134  311.  327.   -35.00870
 108200  432.80    -35.01963   0.0150  311.  365.   -35.00584
 108400  433.60    -35.01964   0.0127  311.  308.   -35.00676
 108600  434.40    -35.01964   0.0104  311.  252.   -35.00864
 108800  435.20    -35.01964   0.0105  311.  254.   -35.00844
block <Epot> / <T> :     -35.02020  306.     drift: -0.55D-07   Tbath : 310.
 109000  436.00    -35.01964   0.0110  311.  268.   -35.00609
 109200  436.80    -35.01964   0.0110  311.  268.   -35.00693
 109400  437.60    -35.01964   0.0111  311.  269.   -35.00785
 109600  438.40    -35.01964   0.0123  311.  299.   -35.00807
 109800  439.20    -35.01964   0.0125  311.  304.   -35.00577
 110000  440.00    -35.01964   0.0134  311.  324.   -35.00840
block <Epot> / <T> :     -35.02016  307.     drift: -0.41D-05   Tbath : 310.
 110200  440.80    -35.01964   0.0123  311.  299.   -35.00673
 110400  441.60    -35.01965   0.0117  310.  285.   -35.00915
 110600  442.40    -35.01965   0.0125  310.  304.   -35.00594
 110800  443.20    -35.01965   0.0141  310.  341.   -35.00699
 111000  444.00    -35.01965   0.0120  310.  291.   -35.00758
 111200  444.80    -35.01965   0.0112  310.  272.   -35.00803
block <Epot> / <T> :     -35.02013  307.     drift:  0.10D-04   Tbath : 310.
 111400  445.60    -35.01965   0.0133  310.  324.   -35.00611
 111600  446.40    -35.01965   0.0116  310.  283.   -35.00870
 111800  447.20    -35.01965   0.0117  310.  285.   -35.00688
 112000  448.00    -35.01965   0.0141  310.  344.   -35.00842
 112200  448.80    -35.01965   0.0146  310.  353.   -35.00546
 112400  449.60    -35.01965   0.0111  310.  269.   -35.00655
block <Epot> / <T> :     -35.02015  308.     drift:  0.17D-04   Tbath : 310.
 112600  450.40    -35.01965   0.0131  310.  318.   -35.00615
 112800  451.20    -35.01966   0.0112  310.  273.   -35.00819
 113000  452.00    -35.01966   0.0137  310.  332.   -35.00766
 113200  452.80    -35.01966   0.0127  310.  309.   -35.00811
 113400  453.60    -35.01966   0.0120  310.  292.   -35.00759
 113600  454.40    -35.01966   0.0126  310.  307.   -35.00639
 113800  455.20    -35.01966   0.0106  310.  256.   -35.00834
block <Epot> / <T> :     -35.02015  307.     drift:  0.94D-06   Tbath : 310.
 114000  456.00    -35.01966   0.0102  310.  247.   -35.00667
 114200  456.80    -35.01966   0.0127  310.  308.   -35.00761
 114400  457.60    -35.01966   0.0118  310.  287.   -35.00781
 114600  458.40    -35.01966   0.0128  310.  312.   -35.00583
 114800  459.20    -35.01966   0.0112  310.  271.   -35.00787
 115000  460.00    -35.01967   0.0143  310.  347.   -35.00658
block <Epot> / <T> :     -35.02017  307.     drift: -0.99D-05   Tbath : 310.
 115200  460.80    -35.01967   0.0133  310.  322.   -35.00899
 115400  461.60    -35.01967   0.0116  310.  283.   -35.00768
 115600  462.40    -35.01967   0.0146  310.  354.   -35.00690
 115800  463.20    -35.01967   0.0111  310.  269.   -35.00747
 116000  464.00    -35.01967   0.0133  310.  322.   -35.00885
 116200  464.80    -35.01967   0.0122  310.  296.   -35.00834
block <Epot> / <T> :     -35.02023  307.     drift: -0.24D-04   Tbath : 310.
 116400  465.60    -35.01967   0.0118  310.  287.   -35.00730
 116600  466.40    -35.01967   0.0154  310.  374.   -35.00669
 116800  467.20    -35.01967   0.0115  310.  278.   -35.00739
 117000  468.00    -35.01968   0.0134  310.  326.   -35.00831
 117200  468.80    -35.01968   0.0123  310.  299.   -35.00800
 117400  469.60    -35.01968   0.0155  310.  377.   -35.00678
block <Epot> / <T> :     -35.02020  307.     drift: -0.20D-04   Tbath : 310.
 117600  470.40    -35.01968   0.0126  310.  305.   -35.00933
 117800  471.20    -35.01968   0.0133  310.  323.   -35.00715
 118000  472.00    -35.01968   0.0121  310.  295.   -35.00829
 118200  472.80    -35.01968   0.0127  310.  308.   -35.00771
 118400  473.60    -35.01968   0.0137  310.  332.   -35.00778
 118600  474.40    -35.01968   0.0144  310.  349.   -35.00693
 118800  475.20    -35.01968   0.0126  310.  306.   -35.00763
block <Epot> / <T> :     -35.02015  306.     drift:  0.62D-05   Tbath : 310.
 119000  476.00    -35.01968   0.0137  310.  334.   -35.00711
 119200  476.80    -35.01968   0.0096  310.  234.   -35.00920
 119400  477.60    -35.01968   0.0118  310.  286.   -35.00729
 119600  478.40    -35.01968   0.0105  310.  255.   -35.00776
 119800  479.20    -35.01969   0.0139  310.  337.   -35.00916
 120000  480.00    -35.01969   0.0120  310.  292.   -35.00834
block <Epot> / <T> :     -35.02007  306.     drift:  0.51D-04   Tbath : 310.
 120200  480.80    -35.01969   0.0145  310.  352.   -35.00879
 120400  481.60    -35.01969   0.0118  310.  286.   -35.00934
 120600  482.40    -35.01969   0.0109  310.  265.   -35.00720
 120800  483.20    -35.01969   0.0139  310.  337.   -35.00764
 121000  484.00    -35.01969   0.0124  310.  301.   -35.00737
 121200  484.80    -35.01969   0.0123  310.  298.   -35.00799
block <Epot> / <T> :     -35.02005  306.     drift:  0.53D-04   Tbath : 310.
 121400  485.60    -35.01969   0.0124  310.  302.   -35.00659
 121600  486.40    -35.01969   0.0120  310.  291.   -35.00608
 121800  487.20    -35.01969   0.0137  310.  333.   -35.00689
 122000  488.00    -35.01969   0.0125  310.  303.   -35.00709
 122200  488.80    -35.01969   0.0133  310.  324.   -35.00777
 122400  489.60    -35.01969   0.0121  310.  293.   -35.00932
block <Epot> / <T> :     -35.02005  307.     drift:  0.32D-04   Tbath : 310.
 122600  490.40    -35.01969   0.0138  310.  336.   -35.00648
 122800  491.20    -35.01969   0.0134  310.  324.   -35.00854
 123000  492.00    -35.01970   0.0130  310.  317.   -35.00644
 123200  492.80    -35.01970   0.0142  310.  344.   -35.00708
 123400  493.60    -35.01970   0.0129  310.  315.   -35.00797
 123600  494.40    -35.01970   0.0132  310.  321.   -35.00770
 123800  495.20    -35.01970   0.0144  310.  351.   -35.00859
block <Epot> / <T> :     -35.02018  307.     drift: -0.31D-04   Tbath : 310.
 124000  496.00    -35.01970   0.0146  310.  355.   -35.00835
 124200  496.80    -35.01970   0.0152  310.  369.   -35.00854
 124400  497.60    -35.01970   0.0085  310.  207.   -35.01009
 124600  498.40    -35.01970   0.0101  310.  245.   -35.00639
 124800  499.20    -35.01970   0.0121  310.  293.   -35.00648
 125000  500.00    -35.01970   0.0099  310.  240.   -35.00841
block <Epot> / <T> :     -35.02022  305.     drift: -0.62D-04   Tbath : 310.
 125200  500.80    -35.01970   0.0135  310.  329.   -35.00718
 125400  501.60    -35.01971   0.0123  310.  300.   -35.00656
 125600  502.40    -35.01971   0.0125  310.  303.   -35.00752
 125800  503.20    -35.01971   0.0145  310.  352.   -35.00614
 126000  504.00    -35.01971   0.0150  310.  364.   -35.00695
 126200  504.80    -35.01971   0.0124  310.  300.   -35.00610
block <Epot> / <T> :     -35.02011  306.     drift: -0.19D-04   Tbath : 310.
 126400  505.60    -35.01971   0.0122  310.  297.   -35.00773
 126600  506.40    -35.01971   0.0108  310.  262.   -35.00647
 126800  507.20    -35.01971   0.0103  310.  250.   -35.00911
 127000  508.00    -35.01971   0.0123  310.  298.   -35.00728
 127200  508.80    -35.01971   0.0114  310.  278.   -35.00665
 127400  509.60    -35.01971   0.0098  310.  238.   -35.00906
 127600  510.40    -35.01971   0.0140  310.  341.   -35.00713
block <Epot> / <T> :     -35.02012  307.     drift:  0.28D-04   Tbath : 310.
 127800  511.20    -35.01971   0.0144  310.  349.   -35.00653
 128000  512.00    -35.01971   0.0126  310.  306.   -35.00745
 128200  512.80    -35.01971   0.0135  310.  328.   -35.00755
 128400  513.60    -35.01972   0.0103  310.  250.   -35.00804
 128600  514.40    -35.01972   0.0126  310.  306.   -35.00744
 128800  515.20    -35.01972   0.0117  310.  285.   -35.00731
block <Epot> / <T> :     -35.02024  308.     drift: -0.93D-05   Tbath : 310.
 129000  516.00    -35.01972   0.0109  310.  265.   -35.00965
 129200  516.80    -35.01972   0.0146  310.  355.   -35.00633
 129400  517.60    -35.01972   0.0144  310.  351.   -35.00690
 129600  518.40    -35.01972   0.0110  310.  268.   -35.00668
 129800  519.20    -35.01972   0.0139  310.  337.   -35.00771
 130000  520.00    -35.01972   0.0126  310.  307.   -35.00827
block <Epot> / <T> :     -35.02021  307.     drift: -0.44D-04   Tbath : 310.
 130200  520.80    -35.01972   0.0124  310.  301.   -35.00937
 130400  521.60    -35.01972   0.0100  310.  242.   -35.00875
 130600  522.40    -35.01972   0.0100  310.  243.   -35.00883
 130800  523.20    -35.01972   0.0125  310.  303.   -35.00766
 131000  524.00    -35.01973   0.0118  310.  288.   -35.00763
 131200  524.80    -35.01973   0.0103  310.  251.   -35.00860
block <Epot> / <T> :     -35.02018  306.     drift: -0.16D-04   Tbath : 310.
 131400  525.60    -35.01973   0.0097  310.  236.   -35.00782
 131600  526.40    -35.01973   0.0120  310.  292.   -35.00624
 131800  527.20    -35.01973   0.0128  310.  311.   -35.00850
 132000  528.00    -35.01973   0.0136  310.  331.   -35.00764
 132200  528.80    -35.01973   0.0121  310.  295.   -35.00679
 132400  529.60    -35.01973   0.0109  310.  265.   -35.00757
 132600  530.40    -35.01973   0.0157  310.  382.   -35.00719
block <Epot> / <T> :     -35.02012  307.     drift:  0.38D-04   Tbath : 310.
 132800  531.20    -35.01973   0.0149  310.  362.   -35.00818
 133000  532.00    -35.01973   0.0131  310.  319.   -35.00695
 133200  532.80    -35.01973   0.0130  310.  315.   -35.00651
 133400  533.60    -35.01973   0.0125  310.  304.   -35.00832
 133600  534.40    -35.01973   0.0130  310.  315.   -35.00826
 133800  535.20    -35.01973   0.0116  310.  282.   -35.00814
block <Epot> / <T> :     -35.02012  308.     drift:  0.33D-04   Tbath : 310.
 134000  536.00    -35.01973   0.0121  310.  294.   -35.00795
 134200  536.80    -35.01973   0.0141  310.  342.   -35.00562
 134400  537.60    -35.01974   0.0113  310.  275.   -35.00699
 134600  538.40    -35.01974   0.0123  310.  299.   -35.00747
 134800  539.20    -35.01974   0.0133  310.  323.   -35.00750
 135000  540.00    -35.01974   0.0138  310.  335.   -35.00544
block <Epot> / <T> :     -35.02014  306.     drift:  0.13D-04   Tbath : 310.
 135200  540.80    -35.01974   0.0127  310.  308.   -35.00669
 135400  541.60    -35.01974   0.0125  310.  304.   -35.00701
 135600  542.40    -35.01974   0.0116  310.  282.   -35.00754
 135800  543.20    -35.01974   0.0127  310.  309.   -35.00705
 136000  544.00    -35.01974   0.0127  310.  308.   -35.00706
 136200  544.80    -35.01974   0.0121  310.  293.   -35.00706
block <Epot> / <T> :     -35.02018  307.     drift: -0.18D-04   Tbath : 310.
 136400  545.60    -35.01974   0.0099  310.  240.   -35.00782
 136600  546.40    -35.01974   0.0119  310.  289.   -35.00722
 136800  547.20    -35.01974   0.0120  310.  293.   -35.00784
 137000  548.00    -35.01974   0.0136  310.  331.   -35.00768
 137200  548.80    -35.01974   0.0122  310.  296.   -35.00786
 137400  549.60    -35.01974   0.0137  310.  334.   -35.00630
 137600  550.40    -35.01975   0.0121  310.  295.   -35.00750
block <Epot> / <T> :     -35.02017  306.     drift: -0.17D-04   Tbath : 310.
 137800  551.20    -35.01975   0.0120  310.  292.   -35.00811
 138000  552.00    -35.01975   0.0102  310.  247.   -35.00614
 138200  552.80    -35.01975   0.0136  310.  331.   -35.00689
 138400  553.60    -35.01975   0.0137  310.  333.   -35.00694
 138600  554.40    -35.01975   0.0149  310.  362.   -35.00802
 138800  555.20    -35.01975   0.0114  310.  276.   -35.00897
block <Epot> / <T> :     -35.02013  306.     drift:  0.44D-05   Tbath : 310.
 139000  556.00    -35.01975   0.0114  310.  276.   -35.00819
 139200  556.80    -35.01975   0.0111  310.  269.   -35.00742
 139400  557.60    -35.01975   0.0106  310.  258.   -35.00764
 139600  558.40    -35.01975   0.0136  310.  330.   -35.00687
 139800  559.20    -35.01975   0.0132  310.  320.   -35.00662
 140000  560.00    -35.01975   0.0116  310.  282.   -35.00885
block <Epot> / <T> :     -35.02018  307.     drift:  0.36D-05   Tbath : 310.
 140200  560.80    -35.01975   0.0130  310.  316.   -35.00861
 140400  561.60    -35.01975   0.0119  310.  289.   -35.00811
 140600  562.40    -35.01975   0.0129  310.  312.   -35.00767
 140800  563.20    -35.01976   0.0149  310.  361.   -35.00785
 141000  564.00    -35.01976   0.0106  310.  257.   -35.00749
 141200  564.80    -35.01976   0.0135  310.  329.   -35.00714
block <Epot> / <T> :     -35.02021  306.     drift: -0.19D-04   Tbath : 310.
 141400  565.60    -35.01976   0.0118  310.  287.   -35.00820
 141600  566.40    -35.01976   0.0117  310.  285.   -35.00735
 141800  567.20    -35.01976   0.0112  310.  273.   -35.00705
 142000  568.00    -35.01976   0.0144  310.  349.   -35.00615
 142200  568.80    -35.01976   0.0099  310.  240.   -35.00798
 142400  569.60    -35.01976   0.0124  310.  300.   -35.00720
 142600  570.40    -35.01976   0.0137  310.  333.   -35.00704
block <Epot> / <T> :     -35.02013  307.     drift: -0.30D-05   Tbath : 310.
 142800  571.20    -35.01976   0.0115  310.  279.   -35.00757
 143000  572.00    -35.01976   0.0105  310.  255.   -35.00784
 143200  572.80    -35.01976   0.0106  310.  258.   -35.00965
 143400  573.60    -35.01976   0.0137  310.  332.   -35.00557
 143600  574.40    -35.01976   0.0122  310.  297.   -35.00678
 143800  575.20    -35.01976   0.0129  310.  314.   -35.00824
block <Epot> / <T> :     -35.02010  307.     drift:  0.32D-04   Tbath : 310.
 144000  576.00    -35.01976   0.0128  310.  312.   -35.00702
 144200  576.80    -35.01976   0.0117  310.  285.   -35.00650
 144400  577.60    -35.01976   0.0130  310.  315.   -35.00764
 144600  578.40    -35.01976   0.0143  310.  347.   -35.00764
 144800  579.20    -35.01977   0.0119  310.  289.   -35.00829
 145000  580.00    -35.01977   0.0139  310.  337.   -35.00572
block <Epot> / <T> :     -35.02009  307.     drift:  0.40D-04   Tbath : 310.
 145200  580.80    -35.01977   0.0114  310.  276.   -35.00762
 145400  581.60    -35.01977   0.0156  310.  379.   -35.00712
 145600  582.40    -35.01977   0.0130  310.  316.   -35.00615
 145800  583.20    -35.01977   0.0116  310.  282.   -35.00827
 146000  584.00    -35.01977   0.0134  310.  326.   -35.00641
 146200  584.80    -35.01977   0.0145  310.  351.   -35.00828
block <Epot> / <T> :     -35.02004  307.     drift:  0.26D-04   Tbath : 310.
 146400  585.60    -35.01977   0.0125  310.  304.   -35.00620
 146600  586.40    -35.01977   0.0132  310.  321.   -35.00683
 146800  587.20    -35.01977   0.0102  310.  247.   -35.00845
 147000  588.00    -35.01977   0.0114  310.  278.   -35.00753
 147200  588.80    -35.01977   0.0124  310.  302.   -35.00778
 147400  589.60    -35.01977   0.0104  310.  252.   -35.00873
 147600  590.40    -35.01977   0.0136  310.  330.   -35.00664
block <Epot> / <T> :     -35.02016  306.     drift: -0.13D-04   Tbath : 310.
 147800  591.20    -35.01977   0.0130  310.  316.   -35.00875
 148000  592.00    -35.01977   0.0123  310.  299.   -35.00678
 148200  592.80    -35.01977   0.0150  310.  364.   -35.00562
 148400  593.60    -35.01977   0.0090  310.  218.   -35.00747
 148600  594.40    -35.01977   0.0135  310.  328.   -35.00886
 148800  595.20    -35.01978   0.0140  310.  341.   -35.00632
block <Epot> / <T> :     -35.02020  307.     drift: -0.45D-04   Tbath : 310.
 149000  596.00    -35.01978   0.0143  310.  346.   -35.00661
 149200  596.80    -35.01978   0.0112  310.  272.   -35.00663
 149400  597.60    -35.01978   0.0127  310.  309.   -35.00784
 149600  598.40    -35.01978   0.0148  310.  359.   -35.00628
 149800  599.20    -35.01978   0.0132  309.  322.   -35.00838
 150000  600.00    -35.01978   0.0128  309.  311.   -35.00663
block <Epot> / <T> :     -35.02016  306.     drift: -0.40D-04   Tbath : 310.
 150200  600.80    -35.01978   0.0155  309.  376.   -35.00672
 150400  601.60    -35.01978   0.0132  309.  320.   -35.00630
 150600  602.40    -35.01978   0.0129  309.  314.   -35.00642
 150800  603.20    -35.01978   0.0119  309.  290.   -35.00764
 151000  604.00    -35.01978   0.0108  309.  263.   -35.00896
 151200  604.80    -35.01978   0.0134  309.  327.   -35.00797
block <Epot> / <T> :     -35.02014  307.     drift:  0.10D-04   Tbath : 310.
 151400  605.60    -35.01978   0.0137  309.  332.   -35.00495
 151600  606.40    -35.01978   0.0121  309.  295.   -35.00840
 151800  607.20    -35.01978   0.0162  309.  394.   -35.00484
 152000  608.00    -35.01978   0.0138  309.  336.   -35.00692
 152200  608.80    -35.01978   0.0154  309.  373.   -35.00733
 152400  609.60    -35.01978   0.0132  309.  320.   -35.00695
 152600  610.40    -35.01978   0.0128  309.  312.   -35.00701
block <Epot> / <T> :     -35.02013  307.     drift:  0.25D-04   Tbath : 310.
 152800  611.20    -35.01978   0.0128  309.  312.   -35.00740
 153000  612.00    -35.01979   0.0117  309.  284.   -35.00864
 153200  612.80    -35.01979   0.0131  309.  318.   -35.00763
 153400  613.60    -35.01979   0.0132  309.  320.   -35.00724
 153600  614.40    -35.01979   0.0109  309.  265.   -35.00765
 153800  615.20    -35.01979   0.0133  309.  323.   -35.00638
block <Epot> / <T> :     -35.02012  307.     drift:  0.15D-04   Tbath : 310.
 154000  616.00    -35.01979   0.0152  309.  370.   -35.00774
 154200  616.80    -35.01979   0.0117  309.  285.   -35.00769
 154400  617.60    -35.01979   0.0106  309.  256.   -35.00906
 154600  618.40    -35.01979   0.0125  309.  304.   -35.00514
 154800  619.20    -35.01979   0.0134  309.  326.   -35.00698
 155000  620.00    -35.01979   0.0114  309.  276.   -35.00768
block <Epot> / <T> :     -35.02011  308.     drift:  0.96D-05   Tbath : 310.
 155200  620.80    -35.01979   0.0125  309.  303.   -35.00759
 155400  621.60    -35.01979   0.0127  309.  309.   -35.00798
 155600  622.40    -35.01979   0.0121  309.  293.   -35.00767
 155800  623.20    -35.01979   0.0115  309.  281.   -35.00774
 156000  624.00    -35.01979   0.0133  309.  324.   -35.00675
 156200  624.80    -35.01979   0.0120  309.  292.   -35.00715
block <Epot> / <T> :     -35.02012  307.     drift:  0.21D-05   Tbath : 310.
 156400  625.60    -35.01979   0.0146  309.  354.   -35.00706
 156600  626.40    -35.01979   0.0122  309.  297.   -35.00761
 156800  627.20    -35.01979   0.0124  309.  301.   -35.00772
 157000  628.00    -35.01979   0.0103  309.  251.   -35.01002
 157200  628.80    -35.01979   0.0123  309.  298.   -35.00765
 157400  629.60    -35.01979   0.0129  309.  312.   -35.00767
 157600  630.40    -35.01979   0.0116  309.  281.   -35.00838
block <Epot> / <T> :     -35.02008  307.     drift:  0.81D-05   Tbath : 310.
 157800  631.20    -35.01979   0.0125  309.  304.   -35.00664
 158000  632.00    -35.01980   0.0113  309.  274.   -35.00798
 158200  632.80    -35.01980   0.0122  309.  296.   -35.00913
 158400  633.60    -35.01980   0.0128  309.  311.   -35.00762
 158600  634.40    -35.01980   0.0141  309.  343.   -35.00886
 158800  635.20    -35.01980   0.0129  309.  313.   -35.00734
block <Epot> / <T> :     -35.02012  307.     drift:  0.66D-06   Tbath : 310.
 159000  636.00    -35.01980   0.0126  309.  306.   -35.00746
 159200  636.80    -35.01980   0.0115  309.  278.   -35.00872
 159400  637.60    -35.01980   0.0141  309.  342.   -35.00900
 159600  638.40    -35.01980   0.0106  309.  256.   -35.00853
 159800  639.20    -35.01980   0.0121  309.  293.   -35.00862
 160000  640.00    -35.01980   0.0113  309.  275.   -35.00746
block <Epot> / <T> :     -35.02011  307.     drift: -0.12D-05   Tbath : 310.
 160200  640.80    -35.01980   0.0134  309.  325.   -35.00720
 160400  641.60    -35.01980   0.0145  309.  353.   -35.00657
 160600  642.40    -35.01980   0.0112  309.  272.   -35.00824
 160800  643.20    -35.01980   0.0122  309.  297.   -35.00932
 161000  644.00    -35.01980   0.0107  309.  259.   -35.00941
 161200  644.80    -35.01980   0.0139  309.  337.   -35.00682
[...]
1492800 5971.20    -35.02011   0.0126  307.  305.   -35.00734
1493000 5972.00    -35.02011   0.0106  307.  258.   -35.00884
1493200 5972.80    -35.02011   0.0131  307.  319.   -35.00777
1493400 5973.60    -35.02011   0.0146  307.  354.   -35.00688
1493600 5974.40    -35.02011   0.0124  307.  301.   -35.00598
block <Epot> / <T> :     -35.02017  307.     drift: -0.18D-04   Tbath : 310.
1493800 5975.20    -35.02011   0.0119  307.  290.   -35.00640
1494000 5976.00    -35.02011   0.0123  307.  300.   -35.00822
1494200 5976.80    -35.02011   0.0128  307.  310.   -35.00747
1494400 5977.60    -35.02011   0.0130  307.  315.   -35.00799
1494600 5978.40    -35.02011   0.0134  307.  325.   -35.00843
1494800 5979.20    -35.02011   0.0127  307.  309.   -35.00828
block <Epot> / <T> :     -35.02022  307.     drift: -0.27D-04   Tbath : 310.
1495000 5980.00    -35.02011   0.0118  307.  287.   -35.00789
1495200 5980.80    -35.02011   0.0131  307.  318.   -35.00615
1495400 5981.60    -35.02011   0.0120  307.  292.   -35.00701
1495600 5982.40    -35.02011   0.0117  307.  285.   -35.00747
1495800 5983.20    -35.02011   0.0129  307.  313.   -35.00736
1496000 5984.00    -35.02011   0.0150  307.  364.   -35.00544
block <Epot> / <T> :     -35.02018  306.     drift:  0.43D-06   Tbath : 310.
1496200 5984.80    -35.02011   0.0117  307.  285.   -35.00639
1496400 5985.60    -35.02011   0.0127  307.  308.   -35.00651
1496600 5986.40    -35.02011   0.0149  307.  362.   -35.00643
1496800 5987.20    -35.02011   0.0124  307.  302.   -35.00655
1497000 5988.00    -35.02011   0.0143  307.  348.   -35.00786
1497200 5988.80    -35.02011   0.0122  307.  296.   -35.00924
1497400 5989.60    -35.02011   0.0138  307.  334.   -35.00625
block <Epot> / <T> :     -35.02012  307.     drift:  0.19D-04   Tbath : 310.
1497600 5990.40    -35.02011   0.0120  307.  292.   -35.00845
1497800 5991.20    -35.02011   0.0136  307.  330.   -35.00849
1498000 5992.00    -35.02011   0.0144  307.  350.   -35.00736
1498200 5992.80    -35.02011   0.0144  307.  351.   -35.00569
1498400 5993.60    -35.02011   0.0129  307.  314.   -35.00704
1498600 5994.40    -35.02011   0.0125  307.  303.   -35.00781
block <Epot> / <T> :     -35.02015  307.     drift:  0.26D-04   Tbath : 310.
1498800 5995.20    -35.02011   0.0134  307.  327.   -35.00588
1499000 5996.00    -35.02011   0.0121  307.  294.   -35.00764
1499200 5996.80    -35.02011   0.0132  307.  320.   -35.00781
1499400 5997.60    -35.02011   0.0118  307.  287.   -35.00786
1499600 5998.40    -35.02011   0.0141  307.  342.   -35.00783
1499800 5999.20    -35.02011   0.0120  307.  292.   -35.00927
block <Epot> / <T> :     -35.02009  307.     drift:  0.25D-04   Tbath : 310.
1500000 6000.00    -35.02011   0.0115  307.  280.   -35.00873
1500200 6000.80    -35.02011   0.0122  307.  297.   -35.00610
1500400 6001.60    -35.02011   0.0135  307.  327.   -35.00769
1500600 6002.40    -35.02011   0.0123  307.  299.   -35.00721
1500800 6003.20    -35.02011   0.0113  307.  273.   -35.00652
1501000 6004.00    -35.02011   0.0115  307.  280.   -35.00724
block <Epot> / <T> :     -35.01981  303.     drift:  0.99D-04   Tbath : 310.
1501200 6004.80    -35.02011   0.0110  307.  268.   -35.00793
1501400 6005.60    -35.02011   0.0147  307.  357.   -35.00794
1501600 6006.40    -35.02011   0.0121  307.  294.   -35.00766
1501800 6007.20    -35.02011   0.0117  307.  285.   -35.00821
1502000 6008.00    -35.02011   0.0121  307.  294.   -35.00714
1502200 6008.80    -35.02011   0.0129  307.  314.   -35.00615
1502400 6009.60    -35.02011   0.0142  307.  346.   -35.00858
block <Epot> / <T> :     -35.02013  310.     drift:  0.35D-04   Tbath : 310.
1502600 6010.40    -35.02011   0.0142  307.  345.   -35.00718
1502800 6011.20    -35.02011   0.0128  307.  311.   -35.00750
1503000 6012.00    -35.02011   0.0119  307.  289.   -35.00714
1503200 6012.80    -35.02011   0.0115  307.  278.   -35.00732
1503400 6013.60    -35.02011   0.0118  307.  287.   -35.00963
1503600 6014.40    -35.02011   0.0103  307.  250.   -35.00861
block <Epot> / <T> :     -35.02023  307.     drift: -0.72D-04   Tbath : 310.
1503800 6015.20    -35.02011   0.0119  307.  288.   -35.00900
1504000 6016.00    -35.02011   0.0135  307.  329.   -35.00702
1504200 6016.80    -35.02011   0.0128  307.  311.   -35.00747
1504400 6017.60    -35.02011   0.0127  307.  310.   -35.00860
1504600 6018.40    -35.02011   0.0128  307.  310.   -35.00846
1504800 6019.20    -35.02011   0.0157  307.  382.   -35.00716
block <Epot> / <T> :     -35.02016  307.     drift: -0.11D-03   Tbath : 310.
1505000 6020.00    -35.02011   0.0118  307.  286.   -35.00695
1505200 6020.80    -35.02011   0.0125  307.  305.   -35.00798
1505400 6021.60    -35.02011   0.0142  307.  344.   -35.00714
1505600 6022.40    -35.02011   0.0118  307.  287.   -35.00644
1505800 6023.20    -35.02011   0.0110  307.  267.   -35.00712
1506000 6024.00    -35.02011   0.0131  307.  317.   -35.00748
1506200 6024.80    -35.02011   0.0135  307.  327.   -35.00691
block <Epot> / <T> :     -35.02017  307.     drift: -0.64D-05   Tbath : 310.
1506400 6025.60    -35.02011   0.0132  307.  321.   -35.00774
1506600 6026.40    -35.02011   0.0123  307.  299.   -35.00854
1506800 6027.20    -35.02011   0.0145  307.  351.   -35.00658
1507000 6028.00    -35.02011   0.0126  307.  307.   -35.00742
1507200 6028.80    -35.02011   0.0130  307.  315.   -35.00885
1507400 6029.60    -35.02011   0.0096  307.  233.   -35.00833
block <Epot> / <T> :     -35.02014  307.     drift:  0.23D-04   Tbath : 310.
1507600 6030.40    -35.02011   0.0129  307.  314.   -35.00771
1507800 6031.20    -35.02011   0.0150  307.  364.   -35.00648
1508000 6032.00    -35.02011   0.0134  307.  324.   -35.00740
1508200 6032.80    -35.02011   0.0113  307.  275.   -35.00912
1508400 6033.60    -35.02011   0.0121  307.  293.   -35.00644
1508600 6034.40    -35.02011   0.0115  307.  279.   -35.00853
block <Epot> / <T> :     -35.02023  307.     drift: -0.17D-04   Tbath : 310.
1508800 6035.20    -35.02011   0.0122  307.  297.   -35.00730
1509000 6036.00    -35.02011   0.0123  307.  300.   -35.00779
1509200 6036.80    -35.02011   0.0117  307.  284.   -35.00795
1509400 6037.60    -35.02011   0.0115  307.  280.   -35.00688
1509600 6038.40    -35.02011   0.0144  307.  350.   -35.00727
1509800 6039.20    -35.02011   0.0134  307.  326.   -35.00744
block <Epot> / <T> :     -35.02011  307.     drift:  0.11D-04   Tbath : 310.
1510000 6040.00    -35.02011   0.0106  307.  258.   -35.00804
1510200 6040.80    -35.02011   0.0103  307.  251.   -35.00834
1510400 6041.60    -35.02011   0.0131  307.  318.   -35.00735
1510600 6042.40    -35.02011   0.0146  307.  354.   -35.00666
1510800 6043.20    -35.02011   0.0128  307.  311.   -35.00791
1511000 6044.00    -35.02011   0.0142  307.  345.   -35.00720
1511200 6044.80    -35.02011   0.0136  307.  331.   -35.00726
block <Epot> / <T> :     -35.02015  308.     drift:  0.11D-04   Tbath : 310.
1511400 6045.60    -35.02011   0.0113  307.  273.   -35.00774
1511600 6046.40    -35.02011   0.0118  307.  286.   -35.00799
1511800 6047.20    -35.02011   0.0138  307.  334.   -35.00896
1512000 6048.00    -35.02011   0.0125  307.  305.   -35.00835
1512200 6048.80    -35.02011   0.0104  307.  252.   -35.00925
1512400 6049.60    -35.02011   0.0111  307.  271.   -35.00897
block <Epot> / <T> :     -35.02015  307.     drift:  0.19D-04   Tbath : 310.
1512600 6050.40    -35.02011   0.0141  307.  344.   -35.00779
1512800 6051.20    -35.02011   0.0129  307.  313.   -35.00811
1513000 6052.00    -35.02011   0.0115  307.  280.   -35.00758
1513200 6052.80    -35.02011   0.0124  307.  300.   -35.00784
1513400 6053.60    -35.02011   0.0124  307.  301.   -35.00720
1513600 6054.40    -35.02011   0.0121  307.  293.   -35.00677
block <Epot> / <T> :     -35.02010  306.     drift:  0.17D-05   Tbath : 310.
1513800 6055.20    -35.02011   0.0114  307.  276.   -35.00796
1514000 6056.00    -35.02011   0.0145  307.  353.   -35.00588
1514200 6056.80    -35.02011   0.0126  307.  307.   -35.00828
1514400 6057.60    -35.02011   0.0148  307.  359.   -35.00696
1514600 6058.40    -35.02011   0.0117  307.  284.   -35.00758
1514800 6059.20    -35.02011   0.0129  307.  314.   -35.00741
block <Epot> / <T> :     -35.02020  308.     drift: -0.99D-05   Tbath : 310.
1515000 6060.00    -35.02011   0.0134  307.  326.   -35.00788
1515200 6060.80    -35.02011   0.0144  307.  351.   -35.00815
1515400 6061.60    -35.02011   0.0131  307.  319.   -35.00840
1515600 6062.40    -35.02011   0.0146  307.  353.   -35.00606
1515800 6063.20    -35.02011   0.0140  307.  341.   -35.00614
1516000 6064.00    -35.02011   0.0118  307.  288.   -35.00883
1516200 6064.80    -35.02011   0.0111  307.  269.   -35.00791
block <Epot> / <T> :     -35.02020  306.     drift: -0.24D-04   Tbath : 310.
1516400 6065.60    -35.02011   0.0118  307.  286.   -35.00692
1516600 6066.40    -35.02011   0.0125  307.  304.   -35.00609
1516800 6067.20    -35.02011   0.0121  307.  295.   -35.00831
1517000 6068.00    -35.02011   0.0117  307.  285.   -35.00675
1517200 6068.80    -35.02011   0.0131  307.  319.   -35.00740
1517400 6069.60    -35.02011   0.0122  307.  297.   -35.00559
block <Epot> / <T> :     -35.02022  306.     drift: -0.36D-04   Tbath : 310.
1517600 6070.40    -35.02011   0.0121  307.  293.   -35.00694
1517800 6071.20    -35.02011   0.0115  307.  280.   -35.00779
1518000 6072.00    -35.02011   0.0130  307.  315.   -35.00882
1518200 6072.80    -35.02011   0.0119  307.  289.   -35.00781
1518400 6073.60    -35.02011   0.0113  307.  274.   -35.00813
1518600 6074.40    -35.02011   0.0112  307.  271.   -35.00738
block <Epot> / <T> :     -35.02018  307.     drift:  0.24D-05   Tbath : 310.
1518800 6075.20    -35.02011   0.0105  307.  255.   -35.00742
1519000 6076.00    -35.02011   0.0135  307.  328.   -35.00715
1519200 6076.80    -35.02011   0.0124  307.  301.   -35.00641
1519400 6077.60    -35.02011   0.0103  307.  249.   -35.00892
1519600 6078.40    -35.02011   0.0125  307.  303.   -35.00902
1519800 6079.20    -35.02011   0.0152  307.  368.   -35.00720
block <Epot> / <T> :     -35.02013  306.     drift:  0.24D-04   Tbath : 310.
1520000 6080.00    -35.02011   0.0122  307.  296.   -35.00769
1520200 6080.80    -35.02011   0.0130  307.  315.   -35.00753
1520400 6081.60    -35.02011   0.0125  307.  303.   -35.00768
1520600 6082.40    -35.02011   0.0139  307.  339.   -35.00615
1520800 6083.20    -35.02011   0.0140  307.  341.   -35.00802
1521000 6084.00    -35.02011   0.0141  307.  344.   -35.00759
1521200 6084.80    -35.02011   0.0141  307.  343.   -35.00548
block <Epot> / <T> :     -35.02021  308.     drift:  0.85D-05   Tbath : 310.
1521400 6085.60    -35.02011   0.0130  307.  316.   -35.00722
1521600 6086.40    -35.02011   0.0142  307.  344.   -35.00578
1521800 6087.20    -35.02011   0.0105  307.  254.   -35.00874
1522000 6088.00    -35.02011   0.0155  307.  377.   -35.00746
1522200 6088.80    -35.02011   0.0117  307.  283.   -35.00871
1522400 6089.60    -35.02011   0.0121  307.  293.   -35.00884
block <Epot> / <T> :     -35.02023  306.     drift: -0.21D-04   Tbath : 310.
1522600 6090.40    -35.02011   0.0112  307.  273.   -35.00948
1522800 6091.20    -35.02011   0.0129  307.  313.   -35.00888
1523000 6092.00    -35.02011   0.0133  307.  322.   -35.00815
1523200 6092.80    -35.02011   0.0116  307.  282.   -35.00921
1523400 6093.60    -35.02011   0.0116  307.  282.   -35.00742
1523600 6094.40    -35.02011   0.0113  307.  275.   -35.00816
block <Epot> / <T> :     -35.02017  306.     drift: -0.13D-04   Tbath : 310.
1523800 6095.20    -35.02011   0.0105  307.  255.   -35.00972
1524000 6096.00    -35.02011   0.0100  307.  242.   -35.00808
1524200 6096.80    -35.02011   0.0134  307.  325.   -35.00872
1524400 6097.60    -35.02011   0.0139  307.  337.   -35.00734
1524600 6098.40    -35.02011   0.0123  307.  298.   -35.00874
1524800 6099.20    -35.02011   0.0134  307.  326.   -35.00706
block <Epot> / <T> :     -35.02018  306.     drift:  0.13D-04   Tbath : 310.
1525000 6100.00    -35.02011   0.0136  307.  329.   -35.00593
1525200 6100.80    -35.02011   0.0136  307.  331.   -35.00693
1525400 6101.60    -35.02011   0.0139  307.  338.   -35.00685
1525600 6102.40    -35.02011   0.0112  307.  271.   -35.00707
1525800 6103.20    -35.02011   0.0131  307.  317.   -35.00686
1526000 6104.00    -35.02011   0.0131  307.  318.   -35.00768
1526200 6104.80    -35.02011   0.0097  307.  235.   -35.00849
block <Epot> / <T> :     -35.02017  307.     drift:  0.16D-04   Tbath : 310.
1526400 6105.60    -35.02011   0.0120  307.  291.   -35.00697
1526600 6106.40    -35.02011   0.0095  307.  231.   -35.00666
1526800 6107.20    -35.02011   0.0127  307.  307.   -35.00775
1527000 6108.00    -35.02011   0.0105  307.  256.   -35.00844
1527200 6108.80    -35.02011   0.0109  307.  265.   -35.00759
1527400 6109.60    -35.02011   0.0115  307.  279.   -35.00828
block <Epot> / <T> :     -35.02016  307.     drift:  0.55D-05   Tbath : 310.
1527600 6110.40    -35.02011   0.0117  307.  283.   -35.00817
1527800 6111.20    -35.02011   0.0118  307.  287.   -35.00690
1528000 6112.00    -35.02011   0.0108  307.  262.   -35.00776
1528200 6112.80    -35.02011   0.0134  307.  326.   -35.00803
1528400 6113.60    -35.02011   0.0126  307.  306.   -35.00679
1528600 6114.40    -35.02011   0.0144  307.  349.   -35.00620
block <Epot> / <T> :     -35.02014  307.     drift:  0.13D-04   Tbath : 310.
1528800 6115.20    -35.02011   0.0121  307.  294.   -35.00812
1529000 6116.00    -35.02011   0.0137  307.  333.   -35.00771
1529200 6116.80    -35.02011   0.0146  307.  355.   -35.00518
1529400 6117.60    -35.02011   0.0115  307.  280.   -35.00821
1529600 6118.40    -35.02011   0.0132  307.  320.   -35.00613
1529800 6119.20    -35.02011   0.0152  307.  368.   -35.00788
block <Epot> / <T> :     -35.02009  307.     drift:  0.24D-04   Tbath : 310.
1530000 6120.00    -35.02011   0.0119  307.  288.   -35.00918
1530200 6120.80    -35.02011   0.0116  307.  281.   -35.00683
1530400 6121.60    -35.02011   0.0118  307.  288.   -35.00742
1530600 6122.40    -35.02011   0.0130  307.  317.   -35.00621
1530800 6123.20    -35.02011   0.0117  307.  285.   -35.00887
1531000 6124.00    -35.02011   0.0130  307.  317.   -35.00818
1531200 6124.80    -35.02011   0.0111  307.  269.   -35.00791
block <Epot> / <T> :     -35.02009  307.     drift:  0.25D-04   Tbath : 310.
1531400 6125.60    -35.02011   0.0118  307.  287.   -35.00756
1531600 6126.40    -35.02011   0.0117  307.  283.   -35.00665
1531800 6127.20    -35.02011   0.0123  307.  299.   -35.00775
1532000 6128.00    -35.02011   0.0110  307.  266.   -35.00873
1532200 6128.80    -35.02011   0.0113  307.  275.   -35.00736
1532400 6129.60    -35.02011   0.0122  307.  296.   -35.00709
block <Epot> / <T> :     -35.02009  307.     drift:  0.18D-04   Tbath : 310.
1532600 6130.40    -35.02011   0.0141  307.  342.   -35.00633
1532800 6131.20    -35.02011   0.0125  307.  304.   -35.00713
1533000 6132.00    -35.02011   0.0136  307.  331.   -35.00644
1533200 6132.80    -35.02011   0.0125  307.  304.   -35.00714
1533400 6133.60    -35.02011   0.0122  307.  296.   -35.00673
1533600 6134.40    -35.02011   0.0109  307.  265.   -35.00741
block <Epot> / <T> :     -35.02011  306.     drift: -0.54D-05   Tbath : 310.
1533800 6135.20    -35.02011   0.0123  307.  299.   -35.00889
1534000 6136.00    -35.02011   0.0102  307.  248.   -35.00878
1534200 6136.80    -35.02011   0.0103  307.  250.   -35.00763
1534400 6137.60    -35.02011   0.0132  307.  320.   -35.00649
1534600 6138.40    -35.02011   0.0103  307.  251.   -35.00772
1534800 6139.20    -35.02011   0.0140  307.  340.   -35.00699
block <Epot> / <T> :     -35.02016  307.     drift: -0.25D-04   Tbath : 310.
1535000 6140.00    -35.02011   0.0117  307.  284.   -35.00902
1535200 6140.80    -35.02011   0.0115  307.  279.   -35.00840
1535400 6141.60    -35.02011   0.0138  307.  335.   -35.00744
1535600 6142.40    -35.02011   0.0136  307.  330.   -35.00792
1535800 6143.20    -35.02011   0.0137  307.  333.   -35.00638
1536000 6144.00    -35.02011   0.0118  307.  287.   -35.00717
1536200 6144.80    -35.02011   0.0136  307.  330.   -35.00713
block <Epot> / <T> :     -35.02015  307.     drift: -0.25D-04   Tbath : 310.
1536400 6145.60    -35.02011   0.0124  307.  302.   -35.00815
1536600 6146.40    -35.02011   0.0121  307.  295.   -35.00760
1536800 6147.20    -35.02011   0.0122  307.  295.   -35.00791
1537000 6148.00    -35.02011   0.0138  307.  336.   -35.00795
1537200 6148.80    -35.02011   0.0111  307.  270.   -35.00779
1537400 6149.60    -35.02011   0.0106  307.  257.   -35.00807
block <Epot> / <T> :     -35.02015  307.     drift: -0.93D-05   Tbath : 310.
1537600 6150.40    -35.02011   0.0118  307.  288.   -35.00695
1537800 6151.20    -35.02011   0.0116  307.  282.   -35.00761
1538000 6152.00    -35.02011   0.0134  307.  326.   -35.00834
1538200 6152.80    -35.02011   0.0119  307.  290.   -35.00658
1538400 6153.60    -35.02011   0.0120  307.  292.   -35.00848
1538600 6154.40    -35.02011   0.0124  307.  300.   -35.00601
block <Epot> / <T> :     -35.02011  307.     drift:  0.15D-04   Tbath : 310.
1538800 6155.20    -35.02011   0.0123  307.  298.   -35.00830
1539000 6156.00    -35.02011   0.0128  307.  310.   -35.00518
1539200 6156.80    -35.02011   0.0095  307.  231.   -35.01027
1539400 6157.60    -35.02011   0.0136  307.  330.   -35.00570
1539600 6158.40    -35.02011   0.0128  307.  311.   -35.00687
1539800 6159.20    -35.02011   0.0110  307.  268.   -35.00798
block <Epot> / <T> :     -35.02011  307.     drift:  0.15D-04   Tbath : 310.
1540000 6160.00    -35.02011   0.0123  307.  298.   -35.00715
1540200 6160.80    -35.02011   0.0155  307.  377.   -35.00705
1540400 6161.60    -35.02011   0.0132  307.  321.   -35.00703
1540600 6162.40    -35.02011   0.0117  307.  285.   -35.00910
1540800 6163.20    -35.02011   0.0120  307.  291.   -35.00983
1541000 6164.00    -35.02011   0.0143  307.  346.   -35.00603
1541200 6164.80    -35.02011   0.0138  307.  336.   -35.00595
block <Epot> / <T> :     -35.02012  307.     drift:  0.87D-05   Tbath : 310.
1541400 6165.60    -35.02011   0.0101  307.  244.   -35.00884
1541600 6166.40    -35.02011   0.0139  307.  339.   -35.00801
1541800 6167.20    -35.02011   0.0134  307.  326.   -35.00631
1542000 6168.00    -35.02011   0.0127  307.  309.   -35.00856
1542200 6168.80    -35.02011   0.0147  307.  357.   -35.00701
1542400 6169.60    -35.02011   0.0131  307.  317.   -35.00823
block <Epot> / <T> :     -35.02020  307.     drift: -0.28D-04   Tbath : 310.
1542600 6170.40    -35.02011   0.0138  307.  335.   -35.00595
1542800 6171.20    -35.02011   0.0098  307.  237.   -35.00895
1543000 6172.00    -35.02011   0.0122  307.  295.   -35.00833
1543200 6172.80    -35.02011   0.0157  307.  381.   -35.00625
1543400 6173.60    -35.02011   0.0136  307.  330.   -35.00886
1543600 6174.40    -35.02011   0.0128  307.  311.   -35.00684
block <Epot> / <T> :     -35.02015  306.     drift: -0.19D-04   Tbath : 310.
1543800 6175.20    -35.02011   0.0123  307.  300.   -35.00656
1544000 6176.00    -35.02011   0.0128  307.  311.   -35.00739
1544200 6176.80    -35.02011   0.0126  307.  306.   -35.00666
1544400 6177.60    -35.02011   0.0139  307.  339.   -35.00872
1544600 6178.40    -35.02011   0.0135  307.  328.   -35.00827
1544800 6179.20    -35.02011   0.0116  307.  282.   -35.00732
block <Epot> / <T> :     -35.02021  307.     drift: -0.21D-04   Tbath : 310.
1545000 6180.00    -35.02011   0.0136  307.  331.   -35.00669
1545200 6180.80    -35.02011   0.0119  307.  288.   -35.00723
1545400 6181.60    -35.02011   0.0114  307.  277.   -35.00593
1545600 6182.40    -35.02011   0.0106  307.  258.   -35.00758
1545800 6183.20    -35.02011   0.0127  307.  308.   -35.00779
1546000 6184.00    -35.02011   0.0128  307.  311.   -35.00727
1546200 6184.80    -35.02011   0.0118  307.  286.   -35.00616
block <Epot> / <T> :     -35.02014  307.     drift:  0.13D-04   Tbath : 310.
recieved SIGINT, terminating...
external termination of xtb
